 *******************************************************************************
 ** Cite this program as: MOPAC2016, Version: 21.291L, James J. P. Stewart,   **
 **                           web-site: HTTP://OpenMOPAC.net.                 **
 *******************************************************************************
 **                                                                           **
 **                                MOPAC2016                                  **
 **                                                                           **
 *******************************************************************************

                              PM7 CALCULATION RESULTS

 *******************************************************************************
 *  CALCULATION DONE:                                Mon Nov 29 10:23:49 2021  *
 *  PM7        - The PM7 Hamiltonian to be used
 *  1SCF       - DO 1 SCF AND THEN STOP 
 *  T=         - A TIME OF 172800.0 SECONDS REQUESTED
 *  DUMP=N     - RESTART FILE WRITTEN EVERY 7200.0 SECONDS REQUESTED
 *  RELSCF     - DEFAULT SCF CRITERION MULTIPLIED BY 0.0001
 *              (DEFAULT SCF CRITERION = 0.00010)
 *  GRADIENTS  - ALL GRADIENTS TO BE PRINTED
 *******************************************************************************
PM7 1SCF GRADIENTS RELSCF=0.0001
 Title: ASE calculation

   ATOM   CHEMICAL          X               Y               Z
  NUMBER   SYMBOL      (ANGSTROMS)     (ANGSTROMS)     (ANGSTROMS)
 
     1       N         -6.81500000  *  -0.66800000  *   1.60700000  *
     2       C         -5.71400000  *   0.00200000  *   2.37300000  *
     3       C         -4.35700000  *  -0.67300000  *   2.58800000  *
     4       O         -4.21200000  *  -1.87000000  *   2.49200000  *
     5       N         -3.38100000  *   0.12500000  *   2.95300000  *
     6       C         -2.06200000  *  -0.39000000  *   3.27400000  *
     7       C         -1.63600000  *   0.17500000  *   4.60000000  *
     8       O         -1.74400000  *   1.35600000  *   4.86200000  *
     9       C         -0.99300000  *  -0.04500000  *   2.19700000  *
    10       C          0.39000000  *  -0.48800000  *   2.64000000  *
    11       C         -1.37800000  *  -0.66200000  *   0.89700000  *
    12       N         -1.09500000  *  -0.70000000  *   5.41500000  *
    13       C         -0.57200000  *  -0.31100000  *   6.66900000  *
    14       C          0.84000000  *  -0.85400000  *   6.79200000  *
    15       O          1.02700000  *  -2.02200000  *   6.72000000  *
    16       C         -1.41100000  *  -0.91300000  *   7.79700000  *
    17       C         -0.72700000  *  -0.64500000  *   9.12300000  *
    18       C         -2.80000000  *  -0.34900000  *   7.78900000  *
    19       N          1.81000000  *   0.00200000  *   7.02300000  *
    20       C          3.19100000  *  -0.42900000  *   7.10100000  *
    21       C          3.91100000  *   0.25800000  *   8.22900000  *
    22       O          4.06400000  *   1.47800000  *   8.22800000  *
    23       C          3.87100000  *  -0.10300000  *   5.74800000  *
    24       C          5.24700000  *  -0.64300000  *   5.58100000  *
    25       N          5.86100000  *  -0.68900000  *   4.35300000  *
    26       C          6.10800000  *  -1.19700000  *   6.44800000  *
    27       C          7.05900000  *  -1.22700000  *   4.48200000  *
    28       N          7.23900000  *  -1.52300000  *   5.75100000  *
    29       N          4.36400000  *  -0.52700000  *   9.18900000  *
    30       C          5.06700000  *   0.02000000  *  10.32600000  *
    31       C          4.27100000  *   0.81700000  *  11.29600000  *
    32       O          4.35900000  *   2.03300000  *  11.36700000  *
    33       N          3.49200000  *   0.10400000  *  12.07300000  *
    34       C          2.58500000  *   0.67700000  *  13.08500000  *
    35       C          3.00600000  *   0.04700000  *  14.36100000  *
    36       O          2.95800000  *  -1.16900000  *  14.51500000  *
    37       C          1.12700000  *   0.33000000  *  12.82700000  *
    38       C          0.24800000  *   0.67500000  *  14.03800000  *
    39       C          0.67400000  *   1.04700000  *  11.59600000  *
    40       N          3.48100000  *   0.88700000  *  15.26200000  *
    41       C          4.16300000  *   0.39200000  *  16.44200000  *
    42       C          3.42400000  *   0.96500000  *  17.63100000  *
    43       O          3.13600000  *   2.11000000  *  17.61200000  *
    44       C          5.68800000  *   0.75000000  *  16.38900000  *
    45       O          6.26400000  *   0.13000000  *  15.23600000  *
    46       C          6.42000000  *   0.21000000  *  17.56900000  *
    47       N          3.17300000  *   0.12900000  *  18.64700000  *
    48       C          2.55900000  *   0.51600000  *  19.90300000  *
    49       C          3.35000000  *  -0.12200000  *  21.01400000  *
    50       O          3.36600000  *  -1.33900000  *  21.14000000  *
    51       C          1.13800000  *  -0.02100000  *  19.98300000  *
    52       O          0.39300000  *   0.39400000  *  18.82400000  *
    53       C          0.48600000  *   0.50100000  *  21.16700000  *
    54       N          4.06700000  *   0.68800000  *  21.76800000  *
    55       C          4.88800000  *   0.20500000  *  22.85100000  *
    56       C          4.35000000  *   0.76900000  *  24.17400000  *
    57       O          4.16100000  *   1.98100000  *  24.26900000  *
    58       C          6.36200000  *   0.61400000  *  22.65200000  *
    59       C          7.15200000  *   0.29700000  *  23.87400000  *
    60       C          6.95300000  *  -0.12100000  *  21.45500000  *
    61       N          4.06500000  *  -0.12000000  *  25.15100000  *
    62       C          3.72000000  *   0.31300000  *  26.51500000  *
    63       C          4.94100000  *   0.14000000  *  27.42000000  *
    64       O          5.71400000  *  -0.80900000  *  27.28700000  *
    65       C          2.49900000  *  -0.42200000  *  27.06200000  *
    66       O          5.25000000  *   0.95500000  *  28.29400000  *
    67       O          5.79800000  *   2.34800000  *  13.66300000  *
    68       O          0.28200000  *  -1.83500000  *  17.06900000  *
    69       O          3.49000000  *  -2.32900000  *   2.71500000  *
    70       O          4.22900000  *   0.25000000  *   1.54200000  *
    71      Tv         17.93000000  *   0.00000000  *   0.00000000  *
    72      Tv          0.00000000  *   4.71000000  *   0.00000000  *
    73      Tv         -2.49379279  *   0.00000000  *  32.93572373  *
 

                   THE SYSTEM IS A SOLID


                UNIT CELL TRANSLATION VECTORS

              X                Y              Z
    T1 =    17.9300000      0.0000000      0.0000000
    T2 =     0.0000000      4.7100000      0.0000000
    T3 =    -2.4937928      0.0000000     32.9357237


          CARTESIAN COORDINATES 

    NO.       ATOM           X           Y           Z

     1         N         -6.8150     -0.6680      1.6070
     2         C         -5.7140      0.0020      2.3730
     3         C         -4.3570     -0.6730      2.5880
     4         O         -4.2120     -1.8700      2.4920
     5         N         -3.3810      0.1250      2.9530
     6         C         -2.0620     -0.3900      3.2740
     7         C         -1.6360      0.1750      4.6000
     8         O         -1.7440      1.3560      4.8620
     9         C         -0.9930     -0.0450      2.1970
    10         C          0.3900     -0.4880      2.6400
    11         C         -1.3780     -0.6620      0.8970
    12         N         -1.0950     -0.7000      5.4150
    13         C         -0.5720     -0.3110      6.6690
    14         C          0.8400     -0.8540      6.7920
    15         O          1.0270     -2.0220      6.7200
    16         C         -1.4110     -0.9130      7.7970
    17         C         -0.7270     -0.6450      9.1230
    18         C         -2.8000     -0.3490      7.7890
    19         N          1.8100      0.0020      7.0230
    20         C          3.1910     -0.4290      7.1010
    21         C          3.9110      0.2580      8.2290
    22         O          4.0640      1.4780      8.2280
    23         C          3.8710     -0.1030      5.7480
    24         C          5.2470     -0.6430      5.5810
    25         N          5.8610     -0.6890      4.3530
    26         C          6.1080     -1.1970      6.4480
    27         C          7.0590     -1.2270      4.4820
    28         N          7.2390     -1.5230      5.7510
    29         N          4.3640     -0.5270      9.1890
    30         C          5.0670      0.0200     10.3260
    31         C          4.2710      0.8170     11.2960
    32         O          4.3590      2.0330     11.3670
    33         N          3.4920      0.1040     12.0730
    34         C          2.5850      0.6770     13.0850
    35         C          3.0060      0.0470     14.3610
    36         O          2.9580     -1.1690     14.5150
    37         C          1.1270      0.3300     12.8270
    38         C          0.2480      0.6750     14.0380
    39         C          0.6740      1.0470     11.5960
    40         N          3.4810      0.8870     15.2620
    41         C          4.1630      0.3920     16.4420
    42         C          3.4240      0.9650     17.6310
    43         O          3.1360      2.1100     17.6120
    44         C          5.6880      0.7500     16.3890
    45         O          6.2640      0.1300     15.2360
    46         C          6.4200      0.2100     17.5690
    47         N          3.1730      0.1290     18.6470
    48         C          2.5590      0.5160     19.9030
    49         C          3.3500     -0.1220     21.0140
    50         O          3.3660     -1.3390     21.1400
    51         C          1.1380     -0.0210     19.9830
    52         O          0.3930      0.3940     18.8240
    53         C          0.4860      0.5010     21.1670
    54         N          4.0670      0.6880     21.7680
    55         C          4.8880      0.2050     22.8510
    56         C          4.3500      0.7690     24.1740
    57         O          4.1610      1.9810     24.2690
    58         C          6.3620      0.6140     22.6520
    59         C          7.1520      0.2970     23.8740
    60         C          6.9530     -0.1210     21.4550
    61         N          4.0650     -0.1200     25.1510
    62         C          3.7200      0.3130     26.5150
    63         C          4.9410      0.1400     27.4200
    64         O          5.7140     -0.8090     27.2870
    65         C          2.4990     -0.4220     27.0620
    66         O          5.2500      0.9550     28.2940
    67         O          5.7980      2.3480     13.6630
    68         O          0.2820     -1.8350     17.0690
    69         O          3.4900     -2.3290      2.7150
    70         O          4.2290      0.2500      1.5420

 General Reference for PM7:
 "Optimization of Parameters for Semiempirical Methods VI: More Modifications to the 
 NDDO Approximations and Re-optimization of Parameters", J. J. P. Stewart, J. Mol. Mod., 1:32, 19 (2013)
 https://link.springer.com/article/10.1007/s00894-012-1667-x

           Empirical Formula: C41 N12 O17  =    70 atoms



      RHF CALCULATION, NO. OF DOUBLY OCCUPIED LEVELS = 163

  SCF CRITERION =    0.3500E-07
