Atom number=15                                                          
SP        RwB97XD                                                     6-31G               
Number of atoms                            I               15
Info1-9                                    I   N=           9
          79          24           0           0           0         110
           1          18       -5802
Full Title                                 C   N=           2
Atom number=15          
Route                                      C   N=           3
#p int=acc2e=12 wb97xd/6-31g        
Charge                                     I                3
Multiplicity                               I                1
Number of electrons                        I               84
Number of alpha electrons                  I               42
Number of beta electrons                   I               42
Number of basis functions                  I              121
Number of independent functions            I              121
Number of point charges in /Mol/           I                0
Number of translation vectors              I                0
Atomic numbers                             I   N=          15
           7           6           6           8           7           6
           6           8           7           6           6           6
           6           1           1
Nuclear charges                            R   N=          15
  7.00000000E+00  6.00000000E+00  6.00000000E+00  8.00000000E+00  7.00000000E+00
  6.00000000E+00  6.00000000E+00  8.00000000E+00  7.00000000E+00  6.00000000E+00
  6.00000000E+00  6.00000000E+00  6.00000000E+00  1.00000000E+00  1.00000000E+00
Current cartesian coordinates              R   N=          45
 -8.54591244E+00 -1.53898677E+00  9.28930302E-02 -5.89374852E+00 -1.73021327E+00
  1.07100451E+00 -3.66723812E+00 -5.21023539E-01 -3.24912478E-01 -3.77409953E+00
  2.17916435E-02 -2.54269937E+00 -1.59629163E+00 -2.40090179E-01  1.01067400E+00
  7.10249604E-01  7.31330312E-01 -1.13652831E-01  2.84833590E+00 -1.01655032E+00
  5.50013965E-01  3.17987874E+00 -1.77761324E+00  2.68974049E+00  4.36028679E+00
 -1.55389022E+00 -1.34116033E+00  6.54296592E+00 -3.05272414E+00 -9.91686261E-01
  1.36575989E+00  3.45817761E+00  7.71056926E-01  3.91212815E+00  4.29050073E+00
 -2.56181648E-01 -6.91416389E-01  5.21844169E+00  7.44087765E-04  8.12601206E+00
 -2.07727260E+00 -1.78602330E+00  6.33895658E+00 -4.81301879E+00 -1.96547016E+00
Number of symbols in /Mol/                 I                0
Int Atom Types                             I   N=          15
           0           0           0           0           0           0
           0           0           0           0           0           0
           0           0           0
Force Field                                I                0
Atom Types                                 C   N=          15
                                                            
                                                            
                                                            
MM charges                                 R   N=          15
  0.00000000E+00  0.00000000E+00  0.00000000E+00  0.00000000E+00  0.00000000E+00
  0.00000000E+00  0.00000000E+00  0.00000000E+00  0.00000000E+00  0.00000000E+00
  0.00000000E+00  0.00000000E+00  0.00000000E+00  0.00000000E+00  0.00000000E+00
Integer atomic weights                     I   N=          15
          14          12          12          16          14          12
          12          16          14          12          12          12
          12           1           1
Real atomic weights                        R   N=          15
  1.40030740E+01  1.20000000E+01  1.20000000E+01  1.59949146E+01  1.40030740E+01
  1.20000000E+01  1.20000000E+01  1.59949146E+01  1.40030740E+01  1.20000000E+01
  1.20000000E+01  1.20000000E+01  1.20000000E+01  1.00782504E+00  1.00782504E+00
Atom fragment info                         I   N=          15
           0           0           0           0           0           0
           0           0           0           0           0           0
           0           0           0
Atom residue num                           I   N=          15
           0           0           0           0           0           0
           0           0           0           0           0           0
           0           0           0
Nuclear spins                              I   N=          15
           2           0           0           0           2           0
           0           0           2           0           0           0
           0           1           1
Nuclear ZEff                               R   N=          15
 -4.55000000E+00 -3.60000000E+00 -3.60000000E+00 -5.60000000E+00 -4.55000000E+00
 -3.60000000E+00 -3.60000000E+00 -5.60000000E+00 -4.55000000E+00 -3.60000000E+00
 -3.60000000E+00 -3.60000000E+00 -3.60000000E+00 -1.00000000E+00 -1.00000000E+00
Nuclear ZNuc                               R   N=          15
  7.00000000E+00  6.00000000E+00  6.00000000E+00  8.00000000E+00  7.00000000E+00
  6.00000000E+00  6.00000000E+00  8.00000000E+00  7.00000000E+00  6.00000000E+00
  6.00000000E+00  6.00000000E+00  6.00000000E+00  1.00000000E+00  1.00000000E+00
Nuclear QMom                               R   N=          15
  2.04400000E+00  0.00000000E+00  0.00000000E+00  0.00000000E+00  2.04400000E+00
  0.00000000E+00  0.00000000E+00  0.00000000E+00  2.04400000E+00  0.00000000E+00
  0.00000000E+00  0.00000000E+00  0.00000000E+00  0.00000000E+00  0.00000000E+00
Nuclear GFac                               R   N=          15
  4.03761000E-01  0.00000000E+00  0.00000000E+00  0.00000000E+00  4.03761000E-01
  0.00000000E+00  0.00000000E+00  0.00000000E+00  4.03761000E-01  0.00000000E+00
  0.00000000E+00  0.00000000E+00  0.00000000E+00  2.79284600E+00  2.79284600E+00
MicOpt                                     I   N=          15
          -1          -1          -1          -1          -1          -1
          -1          -1          -1          -1          -1          -1
          -1          -1          -1
Number of residues                         I                0
Number of secondary structures             I                0
SymInf integers                            I   N=          26
           1           1           1           1           1           0
           0           0           0           0           0           0
           0           0           0           0           0           0
           0           0           0           0           0           0
           0           0
RotTr to input orientation                 R   N=          12
  8.34906165E-01  1.05049023E-01  5.40274373E-01  5.49614040E-01 -1.06943213E-01
 -8.28545446E-01 -2.92592121E-02  9.88700082E-01 -1.47023965E-01 -4.89488184E+00
 -6.21024839E-01  6.39246438E+00
Number of contracted shells                I               43
Number of primitive shells                 I              138
Pure/Cartesian d shells                    I                1
Pure/Cartesian f shells                    I                0
Highest angular momentum                   I                1
Largest degree of contraction              I                6
Shell types                                I   N=          43
           0          -1          -1           0          -1          -1
           0          -1          -1           0          -1          -1
           0          -1          -1           0          -1          -1
           0          -1          -1           0          -1          -1
           0          -1          -1           0          -1          -1
           0          -1          -1           0          -1          -1
           0          -1          -1           0           0           0
           0
Number of primitives per shell             I   N=          43
           6           3           1           6           3           1
           6           3           1           6           3           1
           6           3           1           6           3           1
           6           3           1           6           3           1
           6           3           1           6           3           1
           6           3           1           6           3           1
           6           3           1           3           1           3
           1
Shell to atom map                          I   N=          43
           1           1           1           2           2           2
           3           3           3           4           4           4
           5           5           5           6           6           6
           7           7           7           8           8           8
           9           9           9          10          10          10
          11          11          11          12          12          12
          13          13          13          14          14          15
          15
Primitive exponents                        R   N=         138
  4.17351146E+03  6.27457911E+02  1.42902093E+02  4.02343293E+01  1.28202129E+01
  4.39043701E+00  1.16263619E+01  2.71627981E+00  7.72218397E-01  2.12031498E-01
  3.04752488E+03  4.57369518E+02  1.03948685E+02  2.92101553E+01  9.28666296E+00
  3.16392696E+00  7.86827235E+00  1.88128854E+00  5.44249258E-01  1.68714478E-01
  3.04752488E+03  4.57369518E+02  1.03948685E+02  2.92101553E+01  9.28666296E+00
  3.16392696E+00  7.86827235E+00  1.88128854E+00  5.44249258E-01  1.68714478E-01
  5.48467166E+03  8.25234946E+02  1.88046958E+02  5.29645000E+01  1.68975704E+01
  5.79963534E+00  1.55396162E+01  3.59993359E+00  1.01376175E+00  2.70005823E-01
  4.17351146E+03  6.27457911E+02  1.42902093E+02  4.02343293E+01  1.28202129E+01
  4.39043701E+00  1.16263619E+01  2.71627981E+00  7.72218397E-01  2.12031498E-01
  3.04752488E+03  4.57369518E+02  1.03948685E+02  2.92101553E+01  9.28666296E+00
  3.16392696E+00  7.86827235E+00  1.88128854E+00  5.44249258E-01  1.68714478E-01
  3.04752488E+03  4.57369518E+02  1.03948685E+02  2.92101553E+01  9.28666296E+00
  3.16392696E+00  7.86827235E+00  1.88128854E+00  5.44249258E-01  1.68714478E-01
  5.48467166E+03  8.25234946E+02  1.88046958E+02  5.29645000E+01  1.68975704E+01
  5.79963534E+00  1.55396162E+01  3.59993359E+00  1.01376175E+00  2.70005823E-01
  4.17351146E+03  6.27457911E+02  1.42902093E+02  4.02343293E+01  1.28202129E+01
  4.39043701E+00  1.16263619E+01  2.71627981E+00  7.72218397E-01  2.12031498E-01
  3.04752488E+03  4.57369518E+02  1.03948685E+02  2.92101553E+01  9.28666296E+00
  3.16392696E+00  7.86827235E+00  1.88128854E+00  5.44249258E-01  1.68714478E-01
  3.04752488E+03  4.57369518E+02  1.03948685E+02  2.92101553E+01  9.28666296E+00
  3.16392696E+00  7.86827235E+00  1.88128854E+00  5.44249258E-01  1.68714478E-01
  3.04752488E+03  4.57369518E+02  1.03948685E+02  2.92101553E+01  9.28666296E+00
  3.16392696E+00  7.86827235E+00  1.88128854E+00  5.44249258E-01  1.68714478E-01
  3.04752488E+03  4.57369518E+02  1.03948685E+02  2.92101553E+01  9.28666296E+00
  3.16392696E+00  7.86827235E+00  1.88128854E+00  5.44249258E-01  1.68714478E-01
  1.87311370E+01  2.82539436E+00  6.40121692E-01  1.61277759E-01  1.87311370E+01
  2.82539436E+00  6.40121692E-01  1.61277759E-01
Contraction coefficients                   R   N=         138
  1.83477216E-03  1.39946270E-02  6.85865518E-02  2.32240873E-01  4.69069948E-01
  3.60455199E-01 -1.14961182E-01 -1.69117479E-01  1.14585195E+00  1.00000000E+00
  1.83473713E-03  1.40373228E-02  6.88426223E-02  2.32184443E-01  4.67941348E-01
  3.62311985E-01 -1.19332420E-01 -1.60854152E-01  1.14345644E+00  1.00000000E+00
  1.83473713E-03  1.40373228E-02  6.88426223E-02  2.32184443E-01  4.67941348E-01
  3.62311985E-01 -1.19332420E-01 -1.60854152E-01  1.14345644E+00  1.00000000E+00
  1.83107443E-03  1.39501722E-02  6.84450781E-02  2.32714336E-01  4.70192898E-01
  3.58520853E-01 -1.10777550E-01 -1.48026263E-01  1.13076702E+00  1.00000000E+00
  1.83477216E-03  1.39946270E-02  6.85865518E-02  2.32240873E-01  4.69069948E-01
  3.60455199E-01 -1.14961182E-01 -1.69117479E-01  1.14585195E+00  1.00000000E+00
  1.83473713E-03  1.40373228E-02  6.88426223E-02  2.32184443E-01  4.67941348E-01
  3.62311985E-01 -1.19332420E-01 -1.60854152E-01  1.14345644E+00  1.00000000E+00
  1.83473713E-03  1.40373228E-02  6.88426223E-02  2.32184443E-01  4.67941348E-01
  3.62311985E-01 -1.19332420E-01 -1.60854152E-01  1.14345644E+00  1.00000000E+00
  1.83107443E-03  1.39501722E-02  6.84450781E-02  2.32714336E-01  4.70192898E-01
  3.58520853E-01 -1.10777550E-01 -1.48026263E-01  1.13076702E+00  1.00000000E+00
  1.83477216E-03  1.39946270E-02  6.85865518E-02  2.32240873E-01  4.69069948E-01
  3.60455199E-01 -1.14961182E-01 -1.69117479E-01  1.14585195E+00  1.00000000E+00
  1.83473713E-03  1.40373228E-02  6.88426223E-02  2.32184443E-01  4.67941348E-01
  3.62311985E-01 -1.19332420E-01 -1.60854152E-01  1.14345644E+00  1.00000000E+00
  1.83473713E-03  1.40373228E-02  6.88426223E-02  2.32184443E-01  4.67941348E-01
  3.62311985E-01 -1.19332420E-01 -1.60854152E-01  1.14345644E+00  1.00000000E+00
  1.83473713E-03  1.40373228E-02  6.88426223E-02  2.32184443E-01  4.67941348E-01
  3.62311985E-01 -1.19332420E-01 -1.60854152E-01  1.14345644E+00  1.00000000E+00
  1.83473713E-03  1.40373228E-02  6.88426223E-02  2.32184443E-01  4.67941348E-01
  3.62311985E-01 -1.19332420E-01 -1.60854152E-01  1.14345644E+00  1.00000000E+00
  3.34946043E-02  2.34726953E-01  8.13757326E-01  1.00000000E+00  3.34946043E-02
  2.34726953E-01  8.13757326E-01  1.00000000E+00
P(S=P) Contraction coefficients            R   N=         138
  0.00000000E+00  0.00000000E+00  0.00000000E+00  0.00000000E+00  0.00000000E+00
  0.00000000E+00  6.75797439E-02  3.23907296E-01  7.40895140E-01  1.00000000E+00
  0.00000000E+00  0.00000000E+00  0.00000000E+00  0.00000000E+00  0.00000000E+00
  0.00000000E+00  6.89990666E-02  3.16423961E-01  7.44308291E-01  1.00000000E+00
  0.00000000E+00  0.00000000E+00  0.00000000E+00  0.00000000E+00  0.00000000E+00
  0.00000000E+00  6.89990666E-02  3.16423961E-01  7.44308291E-01  1.00000000E+00
  0.00000000E+00  0.00000000E+00  0.00000000E+00  0.00000000E+00  0.00000000E+00
  0.00000000E+00  7.08742682E-02  3.39752839E-01  7.27158577E-01  1.00000000E+00
  0.00000000E+00  0.00000000E+00  0.00000000E+00  0.00000000E+00  0.00000000E+00
  0.00000000E+00  6.75797439E-02  3.23907296E-01  7.40895140E-01  1.00000000E+00
  0.00000000E+00  0.00000000E+00  0.00000000E+00  0.00000000E+00  0.00000000E+00
  0.00000000E+00  6.89990666E-02  3.16423961E-01  7.44308291E-01  1.00000000E+00
  0.00000000E+00  0.00000000E+00  0.00000000E+00  0.00000000E+00  0.00000000E+00
  0.00000000E+00  6.89990666E-02  3.16423961E-01  7.44308291E-01  1.00000000E+00
  0.00000000E+00  0.00000000E+00  0.00000000E+00  0.00000000E+00  0.00000000E+00
  0.00000000E+00  7.08742682E-02  3.39752839E-01  7.27158577E-01  1.00000000E+00
  0.00000000E+00  0.00000000E+00  0.00000000E+00  0.00000000E+00  0.00000000E+00
  0.00000000E+00  6.75797439E-02  3.23907296E-01  7.40895140E-01  1.00000000E+00
  0.00000000E+00  0.00000000E+00  0.00000000E+00  0.00000000E+00  0.00000000E+00
  0.00000000E+00  6.89990666E-02  3.16423961E-01  7.44308291E-01  1.00000000E+00
  0.00000000E+00  0.00000000E+00  0.00000000E+00  0.00000000E+00  0.00000000E+00
  0.00000000E+00  6.89990666E-02  3.16423961E-01  7.44308291E-01  1.00000000E+00
  0.00000000E+00  0.00000000E+00  0.00000000E+00  0.00000000E+00  0.00000000E+00
  0.00000000E+00  6.89990666E-02  3.16423961E-01  7.44308291E-01  1.00000000E+00
  0.00000000E+00  0.00000000E+00  0.00000000E+00  0.00000000E+00  0.00000000E+00
  0.00000000E+00  6.89990666E-02  3.16423961E-01  7.44308291E-01  1.00000000E+00
  0.00000000E+00  0.00000000E+00  0.00000000E+00  0.00000000E+00  0.00000000E+00
  0.00000000E+00  0.00000000E+00  0.00000000E+00
Coordinates of each shell                  R   N=         129
 -8.54591244E+00 -1.53898677E+00  9.28930302E-02 -8.54591244E+00 -1.53898677E+00
  9.28930302E-02 -8.54591244E+00 -1.53898677E+00  9.28930302E-02 -5.89374852E+00
 -1.73021327E+00  1.07100451E+00 -5.89374852E+00 -1.73021327E+00  1.07100451E+00
 -5.89374852E+00 -1.73021327E+00  1.07100451E+00 -3.66723812E+00 -5.21023539E-01
 -3.24912478E-01 -3.66723812E+00 -5.21023539E-01 -3.24912478E-01 -3.66723812E+00
 -5.21023539E-01 -3.24912478E-01 -3.77409953E+00  2.17916435E-02 -2.54269937E+00
 -3.77409953E+00  2.17916435E-02 -2.54269937E+00 -3.77409953E+00  2.17916435E-02
 -2.54269937E+00 -1.59629163E+00 -2.40090179E-01  1.01067400E+00 -1.59629163E+00
 -2.40090179E-01  1.01067400E+00 -1.59629163E+00 -2.40090179E-01  1.01067400E+00
  7.10249604E-01  7.31330312E-01 -1.13652831E-01  7.10249604E-01  7.31330312E-01
 -1.13652831E-01  7.10249604E-01  7.31330312E-01 -1.13652831E-01  2.84833590E+00
 -1.01655032E+00  5.50013965E-01  2.84833590E+00 -1.01655032E+00  5.50013965E-01
  2.84833590E+00 -1.01655032E+00  5.50013965E-01  3.17987874E+00 -1.77761324E+00
  2.68974049E+00  3.17987874E+00 -1.77761324E+00  2.68974049E+00  3.17987874E+00
 -1.77761324E+00  2.68974049E+00  4.36028679E+00 -1.55389022E+00 -1.34116033E+00
  4.36028679E+00 -1.55389022E+00 -1.34116033E+00  4.36028679E+00 -1.55389022E+00
 -1.34116033E+00  6.54296592E+00 -3.05272414E+00 -9.91686261E-01  6.54296592E+00
 -3.05272414E+00 -9.91686261E-01  6.54296592E+00 -3.05272414E+00 -9.91686261E-01
  1.36575989E+00  3.45817761E+00  7.71056926E-01  1.36575989E+00  3.45817761E+00
  7.71056926E-01  1.36575989E+00  3.45817761E+00  7.71056926E-01  3.91212815E+00
  4.29050073E+00 -2.56181648E-01  3.91212815E+00  4.29050073E+00 -2.56181648E-01
  3.91212815E+00  4.29050073E+00 -2.56181648E-01 -6.91416389E-01  5.21844169E+00
  7.44087765E-04 -6.91416389E-01  5.21844169E+00  7.44087765E-04 -6.91416389E-01
  5.21844169E+00  7.44087765E-04  8.12601206E+00 -2.07727260E+00 -1.78602330E+00
  8.12601206E+00 -2.07727260E+00 -1.78602330E+00  6.33895658E+00 -4.81301879E+00
 -1.96547016E+00  6.33895658E+00 -4.81301879E+00 -1.96547016E+00
Num ILSW                                   I              100
ILSW                                       I   N=         100
           0           1           0           0           2           0
           0           0           0           0        4639          -1
           5           0           0           0           0           0
           0           0           0           0           0           0
           1           0           0           0           0           0
           0           0      100000           0          -1           0
           0           0           0           0           0           0
           0           0           0           1           0           0
           0 -2000000000           1           0           0           0
           0           0         121          52           0           0
           0           0          58           0           0           0
           0           0           0          15           0           1
           0           0           0           0           0           0
           0           0           0           0           0           0
           0           0           0           0           0           0
           0           0           0           0           0           0
           0           0           0           0
Num RLSW                                   I               52
RLSW                                       R   N=          52
  1.00000000E+00  1.00000000E+00  1.00000000E+00  1.00000000E+00  1.00000000E+00
  0.00000000E+00  2.00000000E-01  2.22036000E-01  0.00000000E+00  7.77964000E-01
  0.00000000E+00  2.00000000E-01  0.00000000E+00  0.00000000E+00  1.00000000E+00
  0.00000000E+00  0.00000000E+00  1.00000000E+00  0.00000000E+00  0.00000000E+00
  0.00000000E+00  0.00000000E+00  1.00000000E+00  0.00000000E+00  0.00000000E+00
  0.00000000E+00  0.00000000E+00  1.00000000E+00  0.00000000E+00  0.00000000E+00
  0.00000000E+00  0.00000000E+00  1.00000000E+00  0.00000000E+00  0.00000000E+00
  0.00000000E+00  0.00000000E+00  0.00000000E+00  1.00000000E+00  1.00000000E+00
  0.00000000E+00  1.00000000E+00  0.00000000E+00  0.00000000E+00  0.00000000E+00
  0.00000000E+00  0.00000000E+00  0.00000000E+00  0.00000000E+00  0.00000000E+00
  0.00000000E+00  0.00000000E+00
MxBond                                     I                3
NBond                                      I   N=          15
           1           2           3           1           2           3
           3           1           2           3           3           1
           1           1           1
IBond                                      I   N=          45
           2           0           0           1           3           0
           2           4           5           3           0           0
           3           6           0           5           7          11
           6           8           9           7           0           0
           7          10           0           9          14          15
           6          12          13          11           0           0
          11           0           0          10           0           0
          10           0           0
RBond                                      R   N=          45
  1.00000000E+00  0.00000000E+00  0.00000000E+00  1.00000000E+00  1.00000000E+00
  0.00000000E+00  1.00000000E+00  2.00000000E+00  1.50000000E+00  2.00000000E+00
  0.00000000E+00  0.00000000E+00  1.50000000E+00  1.00000000E+00  0.00000000E+00
  1.00000000E+00  1.00000000E+00  1.00000000E+00  1.00000000E+00  2.00000000E+00
  1.50000000E+00  2.00000000E+00  0.00000000E+00  0.00000000E+00  1.50000000E+00
  1.00000000E+00  0.00000000E+00  1.00000000E+00  1.00000000E+00  1.00000000E+00
  1.00000000E+00  1.00000000E+00  1.00000000E+00  1.00000000E+00  0.00000000E+00
  0.00000000E+00  1.00000000E+00  0.00000000E+00  0.00000000E+00  1.00000000E+00
  0.00000000E+00  0.00000000E+00  1.00000000E+00  0.00000000E+00  0.00000000E+00
Virial Ratio                               R      2.005889864623068E+00
SCF Energy                                 R     -6.179513997480892E+02
Total Energy                               R     -6.179513997480892E+02
RMS Density                                R      7.965448725867717E-09
Job Status                                 I                1
Nuclear derivative order                   I                0
External E-field                           R   N=          35
  0.00000000E+00  0.00000000E+00  0.00000000E+00  0.00000000E+00  0.00000000E+00
  0.00000000E+00  0.00000000E+00  0.00000000E+00  0.00000000E+00  0.00000000E+00
  0.00000000E+00  0.00000000E+00  0.00000000E+00  0.00000000E+00  0.00000000E+00
  0.00000000E+00  0.00000000E+00  0.00000000E+00  0.00000000E+00  0.00000000E+00
  0.00000000E+00  0.00000000E+00  0.00000000E+00  0.00000000E+00  0.00000000E+00
  0.00000000E+00  0.00000000E+00  0.00000000E+00  0.00000000E+00  0.00000000E+00
  0.00000000E+00  0.00000000E+00  0.00000000E+00  0.00000000E+00  0.00000000E+00
IOpCl                                      I                0
IROHF                                      I                0
Alpha Orbital Energies                     R   N=         121
 -1.98729203E+01 -1.98455500E+01 -1.51263008E+01 -1.50844801E+01 -1.50501427E+01
 -1.10658990E+01 -1.10599881E+01 -1.10266968E+01 -1.10065571E+01 -1.09782969E+01
 -1.09632564E+01 -1.09410667E+01 -1.09248016E+01 -1.77912823E+00 -1.75352490E+00
 -1.61747934E+00 -1.58285972E+00 -1.52875515E+00 -1.48188016E+00 -1.41905885E+00
 -1.35267183E+00 -1.31876307E+00 -1.28260321E+00 -1.19403860E+00 -1.18795988E+00
 -1.10713879E+00 -1.10531226E+00 -1.09231535E+00 -1.08360198E+00 -1.08293657E+00
 -1.04720407E+00 -1.02241361E+00 -1.01171298E+00 -9.86967201E-01 -9.73365796E-01
 -9.58261012E-01 -9.46426516E-01 -9.21445860E-01 -9.06450299E-01 -8.98881912E-01
 -8.85832992E-01 -8.40574201E-01 -7.24272712E-01 -6.49184675E-01 -6.36963368E-01
 -6.23624332E-01 -5.99615459E-01 -5.71114328E-01 -5.70634181E-01 -5.40368516E-01
 -5.07186210E-01 -4.40640140E-01 -4.02567948E-01 -3.13729732E-01 -2.55953212E-01
 -2.38820953E-01 -2.28512406E-01 -2.17609694E-01 -2.13861220E-01 -2.06736063E-01
 -1.92038857E-01 -1.79863639E-01 -1.64941915E-01 -1.24471466E-01 -1.12429119E-01
 -4.30815749E-02 -1.23213178E-02  4.17862712E-02  5.07852411E-02  6.35355531E-02
  8.08747017E-02  9.81164085E-02  1.17545124E-01  1.30724776E-01  1.43056101E-01
  1.49604151E-01  1.53853079E-01  1.60269706E-01  1.64344713E-01  1.71426913E-01
  1.82545475E-01  1.91622767E-01  2.09386067E-01  2.28535737E-01  2.41335401E-01
  2.47155003E-01  2.54859697E-01  2.56734218E-01  2.93403135E-01  3.07552919E-01
  3.17814197E-01  3.40138771E-01  3.59337344E-01  3.74745371E-01  3.90703721E-01
  4.05413459E-01  4.28151114E-01  4.74225981E-01  4.85963574E-01  4.95740079E-01
  5.23819207E-01  5.35404022E-01  5.45193328E-01  5.71153244E-01  5.85706493E-01
  6.21968153E-01  6.32970449E-01  6.38739031E-01  6.81685039E-01  6.98554053E-01
  7.22476870E-01  7.42595361E-01  7.64586106E-01  7.99583986E-01  8.87868564E-01
  9.25806973E-01  1.01320849E+00  1.14533191E+00  1.17734711E+00  1.45960464E+00
  1.52723463E+00
Alpha MO coefficients                      R   N=       14641
 -1.12001562E-05 -6.96810775E-05  9.08548956E-05  7.74821058E-05 -4.03484278E-05
  1.60156752E-03  4.36904138E-04 -5.44584451E-04  6.05998414E-04  1.72131586E-05
  5.24744220E-05 -2.91031942E-05 -5.71890998E-05  1.59724235E-04  2.03484244E-03
  3.63441141E-03  8.04745048E-04  1.06824417E-03  2.75808268E-04  6.07299618E-04
 -1.03305267E-04 -1.38612860E-04  2.02811161E-04  6.58757006E-03 -7.01451595E-04
  3.80063334E-03 -1.42030656E-02  9.95256725E-01  2.98655344E-02  1.35166282E-04
 -5.66720176E-04  2.66503915E-03 -2.50567629E-02 -3.17092517E-04  1.67975540E-03
 -7.35645203E-03 -1.23574025E-05 -2.60535637E-04  4.05741450E-04  6.20261398E-05
  1.00386943E-04  2.27822986E-03 -4.05712100E-03 -1.57194320E-03  1.24572386E-03
  3.85885427E-06 -1.26915589E-06 -1.03719556E-04 -1.59018332E-04  1.63860914E-04
  2.32732850E-03 -4.59678389E-04 -1.09093335E-04  9.55158738E-04 -6.53787705E-06
 -7.89348356E-05  4.83239703E-05 -5.38582998E-05 -1.97160448E-05 -4.01784707E-04
 -2.33020943E-04 -1.13471149E-04  6.06070288E-04  1.12297900E-04  8.36260993E-05
 -1.95364902E-06  1.24121668E-05  3.71815633E-06 -4.18856781E-04  1.02902783E-04
 -8.75404147E-05  6.65384394E-05 -5.77220270E-06 -6.51018406E-05  1.97721810E-05
 -2.89907814E-05 -4.13687710E-06  4.84282264E-04 -3.41177661E-04  2.56726786E-04
  1.65760744E-04 -2.32303910E-06 -1.42093390E-05 -1.53662472E-05  8.09279860E-06
 -1.84660024E-06  2.54101487E-04 -6.24424002E-05  4.40395736E-05 -7.25461788E-05
 -5.07658412E-06 -5.47934958E-05  2.94579436E-05  3.63485620E-05 -7.80299469E-06
 -7.08541834E-05 -6.43682039E-04  4.39853781E-04 -7.96544106E-05 -9.75992462E-06
 -1.03340985E-04  5.25335939E-06  8.19000051E-06  2.01206808E-05  4.78489187E-04
 -1.78945444E-04 -2.24924457E-04  7.37221521E-05  2.51057384E-05  3.42029334E-04
 -8.25139018E-05 -8.81040624E-05 -3.35302458E-05 -1.08496833E-03 -7.01661814E-05
  5.68288384E-04 -3.56817841E-05 -9.53978090E-06 -3.76195703E-05 -1.66729483E-05
 -2.38877847E-05 -1.24144972E-06 -1.94345446E-05 -3.12664978E-06 -2.43233461E-06
 -7.14790255E-06  8.97665527E-05  2.73636934E-05 -2.10823566E-05  4.09812188E-05
 -2.48865885E-06 -1.70451463E-05  6.06970768E-06  2.06639336E-05 -9.70826353E-06
  3.71506153E-04  2.66489424E-04  1.45908654E-04 -1.39482717E-05 -8.36721761E-06
 -1.10846854E-04 -1.15990745E-04 -4.81203397E-05 -4.71308390E-05 -7.51440639E-04
  1.60066868E-04 -1.33746429E-04 -7.78394133E-04 -1.04103626E-04  6.98589984E-05
  1.76385491E-05 -3.06090295E-05 -1.05661099E-05 -3.73950815E-04 -8.50131803E-05
  1.75587574E-04 -3.50177194E-05  7.54271909E-06  8.72393106E-05  1.24253377E-04
 -6.50895454E-05  1.06187753E-05  7.19734088E-04 -1.23406092E-03  9.03945248E-04
 -4.20194561E-04 -3.41163535E-05 -4.40333615E-04 -2.21789803E-04  2.24901496E-04
 -2.29671633E-04  4.54993885E-03  3.63776503E-03 -1.83925024E-03 -1.25932916E-03
  2.56057808E-04  3.32101635E-04  6.68828092E-05 -4.48501984E-05 -1.97641402E-04
  6.19748926E-03  1.87530537E-03 -4.89171610E-03  1.49297524E-02  9.95268620E-01
  3.00597496E-02 -4.01541043E-04  9.39111922E-04 -2.53837549E-03 -2.59792851E-02
  1.31672395E-03 -2.77721842E-03  7.26886777E-03 -1.95553965E-05 -3.51951801E-04
  2.83257616E-04 -1.15032758E-04 -2.00126861E-04  3.41230190E-03 -3.73445491E-03
  2.31552898E-03  1.31524149E-04  2.29855385E-05  1.91125574E-04 -1.61246752E-04
  1.50464744E-04 -1.37929984E-04  1.81389593E-03 -3.53878649E-04  4.15896504E-04
 -7.17432169E-04  3.76118288E-05  4.25442777E-04  1.84428114E-04 -1.75351700E-04
  5.12438295E-05 -7.91610641E-04 -2.32915178E-03  1.28573570E-03 -4.69116102E-06
 -1.41001709E-05  1.72385846E-05 -5.72296854E-05 -1.56183043E-04  8.62421475E-05
  1.28319633E-03 -4.61084736E-04 -3.19551582E-04  2.63598053E-04  2.42482644E-06
  2.39424652E-05 -1.11658541E-05  5.79811347E-05 -4.16860233E-05 -1.26177923E-03
 -5.43448942E-04  1.78050595E-04 -3.09832313E-04 -9.41769100E-05 -2.59038687E-04
 -3.59664551E-05 -2.65189640E-04  9.95525271E-01  2.81002658E-02  2.23105214E-03
 -1.21599455E-04  7.85658221E-04 -1.62910004E-02 -5.61477931E-03  4.07404979E-04
 -2.05100469E-03  4.49509513E-06 -1.04326971E-03  3.59578731E-04 -3.12166523E-06
  1.34219595E-04  7.58576001E-03 -5.73470210E-03  3.14889962E-04 -1.94269383E-03
 -1.21107661E-06 -2.86544860E-04  2.70928637E-04  7.17297775E-05 -4.78188293E-05
 -1.02517343E-03 -9.81479436E-04 -5.11976802E-04 -2.57360353E-04  2.76907796E-06
  2.52777741E-05  3.11656716E-05 -3.25865019E-05  1.28378698E-05  9.48112640E-07
  1.86028200E-04  2.12951551E-04  2.14988276E-05 -2.23361489E-04 -2.87217214E-04
  2.15789626E-04  1.50134410E-04 -5.46896435E-05  7.08779469E-04 -2.11746625E-03