 Entering Gaussian System, Link 0=g16
 Input=4znn_01_gebf_dft_7.gjf
 Output=4znn_01_gebf_dft_7.log
 Initial command:
 /work/01114/jfonner/frontera/gaussian/16rC.01/g16/l1.exe "/scratch1/08249/sa748948/lsqc/17325950/Gau-14778.inp" -scrdir="/scratch1/08249/sa748948/lsqc/17325950/"
 Entering Link 1 = /work/01114/jfonner/frontera/gaussian/16rC.01/g16/l1.exe PID=     15286.
  
 Copyright (c) 1988-2019, Gaussian, Inc.  All Rights Reserved.
  
 This is part of the Gaussian(R) 16 program.  It is based on
 the Gaussian(R) 09 system (copyright 2009, Gaussian, Inc.),
 the Gaussian(R) 03 system (copyright 2003, Gaussian, Inc.),
 the Gaussian(R) 98 system (copyright 1998, Gaussian, Inc.),
 the Gaussian(R) 94 system (copyright 1995, Gaussian, Inc.),
 the Gaussian 92(TM) system (copyright 1992, Gaussian, Inc.),
 the Gaussian 90(TM) system (copyright 1990, Gaussian, Inc.),
 the Gaussian 88(TM) system (copyright 1988, Gaussian, Inc.),
 the Gaussian 86(TM) system (copyright 1986, Carnegie Mellon
 University), and the Gaussian 82(TM) system (copyright 1983,
 Carnegie Mellon University). Gaussian is a federally registered
 trademark of Gaussian, Inc.
  
 This software contains proprietary and confidential information,
 including trade secrets, belonging to Gaussian, Inc.
  
 This software is provided under written license and may be
 used, copied, transmitted, or stored only in accord with that
 written license.
  
 The following legend is applicable only to US Government
 contracts under FAR:
  
                    RESTRICTED RIGHTS LEGEND
  
 Use, reproduction and disclosure by the US Government is
 subject to restrictions as set forth in subparagraphs (a)
 and (c) of the Commercial Computer Software - Restricted
 Rights clause in FAR 52.227-19.
  
 Gaussian, Inc.
 340 Quinnipiac St., Bldg. 40, Wallingford CT 06492
  
  
 ---------------------------------------------------------------
 Warning -- This program may not be used in any manner that
 competes with the business of Gaussian, Inc. or will provide
 assistance to any competitor of Gaussian, Inc.  The licensee
 of this program is prohibited from giving any competitor of
 Gaussian, Inc. access to this program.  By using this program,
 the user acknowledges that Gaussian, Inc. is engaged in the
 business of creating and licensing software in the field of
 computational chemistry and represents and warrants to the
 licensee that it is not a competitor of Gaussian, Inc. and that
 it will not use this program in any manner prohibited above.
 ---------------------------------------------------------------
  

 Cite this work as:
 Gaussian 16, Revision C.01,
 M. J. Frisch, G. W. Trucks, H. B. Schlegel, G. E. Scuseria, 
 M. A. Robb, J. R. Cheeseman, G. Scalmani, V. Barone, 
 G. A. Petersson, H. Nakatsuji, X. Li, M. Caricato, A. V. Marenich, 
 J. Bloino, B. G. Janesko, R. Gomperts, B. Mennucci, H. P. Hratchian, 
 J. V. Ortiz, A. F. Izmaylov, J. L. Sonnenberg, D. Williams-Young, 
 F. Ding, F. Lipparini, F. Egidi, J. Goings, B. Peng, A. Petrone, 
 T. Henderson, D. Ranasinghe, V. G. Zakrzewski, J. Gao, N. Rega, 
 G. Zheng, W. Liang, M. Hada, M. Ehara, K. Toyota, R. Fukuda, 
 J. Hasegawa, M. Ishida, T. Nakajima, Y. Honda, O. Kitao, H. Nakai, 
 T. Vreven, K. Throssell, J. A. Montgomery, Jr., J. E. Peralta, 
 F. Ogliaro, M. J. Bearpark, J. J. Heyd, E. N. Brothers, K. N. Kudin, 
 V. N. Staroverov, T. A. Keith, R. Kobayashi, J. Normand, 
 K. Raghavachari, A. P. Rendell, J. C. Burant, S. S. Iyengar, 
 J. Tomasi, M. Cossi, J. M. Millam, M. Klene, C. Adamo, R. Cammi, 
 J. W. Ochterski, R. L. Martin, K. Morokuma, O. Farkas, 
 J. B. Foresman, and D. J. Fox, Gaussian, Inc., Wallingford CT, 2019.
 
 ******************************************
 Gaussian 16:  ES64L-G16RevC.01  3-Jul-2019
                12-Jan-2022 
 ******************************************
 %chk=4znn_01_gebf_dft_7.chk
 %nproc=56
 Will use up to   56 processors via shared memory.
 %mem=3gb
 ----------------------------
 #p int=acc2e=12 wb97xd/6-31g
 ----------------------------
 1/38=1,172=1/1;
 2/12=2,17=6,18=5,40=1/2;
 3/5=1,6=6,11=2,25=1,27=12,30=1,74=-58/1,2,3;
 4//1;
 5/5=2,38=5,87=12/2;
 6/7=2,8=2,9=2,10=2,28=1,87=12/1;
 99/5=1,9=1/99;
 Leave Link    1 at Wed Jan 12 16:38:33 2022, MaxMem=   402653184 cpu:               8.9 elap:               1.3
 (Enter /work/01114/jfonner/frontera/gaussian/16rC.01/g16/l101.exe)
 --------------
 Atom number=26
 --------------
 Symbolic Z-matrix:
 Charge =  1 Multiplicity = 1
 c                     3.006     0.047     14.361 
 o                     2.958    -1.169     14.515 
 n                     3.481     0.887     15.262 
 c                     4.163     0.392     16.442 
 c                     3.424     0.965     17.631 
 o                     3.136     2.11      17.612 
 n                     3.173     0.129     18.647 
 c                     2.559     0.516     19.903 
 c                     5.688     0.75      16.389 
 o                     6.264     0.13      15.236 
 c                     3.35     -0.122     21.014 
 o                     3.366    -1.339     21.14 
 n                     4.067     0.688     21.768 
 c                     4.888     0.205     22.851 
 c                     4.35      0.769     24.174 
 o                     4.161     1.981     24.269 
 n                     4.065    -0.12      25.151 
 c                     3.72      0.313     26.515 
 c                     1.138    -0.021     19.983 
 o                     0.393     0.394     18.824 
 c                     0.486     0.501     21.167 
 h                     2.70245   0.50124   13.44099 
 h                     6.2137    0.36219   17.23644 
 h                     5.91043   0.4887    22.71297 
 h                     4.5741    0.19198   27.14806 
 h                     2.86415  -0.20219   26.89841 
 
 ITRead=  0  0  0  0  0  0  0  0  0  0  0  0  0  0  0  0  0  0  0  0
 ITRead=  0  0  0  0  0  0
 MicOpt= -1 -1 -1 -1 -1 -1 -1 -1 -1 -1 -1 -1 -1 -1 -1 -1 -1 -1 -1 -1
 MicOpt= -1 -1 -1 -1 -1 -1
 NAtoms=     26 NQM=       26 NQMF=       0 NMMI=      0 NMMIF=      0
                NMic=       0 NMicF=      0.
                    Isotopes and Nuclear Properties:
 (Nuclear quadrupole moments (NQMom) in fm**2, nuclear magnetic moments (NMagM)
  in nuclear magnetons)

  Atom         1           2           3           4           5           6           7           8           9          10
 IAtWgt=          12          16          14          12          12          16          14          12          12          16
 AtmWgt=  12.0000000  15.9949146  14.0030740  12.0000000  12.0000000  15.9949146  14.0030740  12.0000000  12.0000000  15.9949146
 NucSpn=           0           0           2           0           0           0           2           0           0           0
 AtZEff=  -0.0000000  -0.0000000  -0.0000000  -0.0000000  -0.0000000  -0.0000000  -0.0000000  -0.0000000  -0.0000000  -0.0000000
 NQMom=    0.0000000   0.0000000   2.0440000   0.0000000   0.0000000   0.0000000   2.0440000   0.0000000   0.0000000   0.0000000
 NMagM=    0.0000000   0.0000000   0.4037610   0.0000000   0.0000000   0.0000000   0.4037610   0.0000000   0.0000000   0.0000000
 AtZNuc=   6.0000000   8.0000000   7.0000000   6.0000000   6.0000000   8.0000000   7.0000000   6.0000000   6.0000000   8.0000000

  Atom        11          12          13          14          15          16          17          18          19          20
 IAtWgt=          12          16          14          12          12          16          14          12          12          16
 AtmWgt=  12.0000000  15.9949146  14.0030740  12.0000000  12.0000000  15.9949146  14.0030740  12.0000000  12.0000000  15.9949146
 NucSpn=           0           0           2           0           0           0           2           0           0           0
 AtZEff=  -0.0000000  -0.0000000  -0.0000000  -0.0000000  -0.0000000  -0.0000000  -0.0000000  -0.0000000  -0.0000000  -0.0000000
 NQMom=    0.0000000   0.0000000   2.0440000   0.0000000   0.0000000   0.0000000   2.0440000   0.0000000   0.0000000   0.0000000
 NMagM=    0.0000000   0.0000000   0.4037610   0.0000000   0.0000000   0.0000000   0.4037610   0.0000000   0.0000000   0.0000000
 AtZNuc=   6.0000000   8.0000000   7.0000000   6.0000000   6.0000000   8.0000000   7.0000000   6.0000000   6.0000000   8.0000000

  Atom        21          22          23          24          25          26
 IAtWgt=          12           1           1           1           1           1
 AtmWgt=  12.0000000   1.0078250   1.0078250   1.0078250   1.0078250   1.0078250
 NucSpn=           0           1           1           1           1           1
 AtZEff=  -0.0000000  -0.0000000  -0.0000000  -0.0000000  -0.0000000  -0.0000000
 NQMom=    0.0000000   0.0000000   0.0000000   0.0000000   0.0000000   0.0000000
 NMagM=    0.0000000   2.7928460   2.7928460   2.7928460   2.7928460   2.7928460
 AtZNuc=   6.0000000   1.0000000   1.0000000   1.0000000   1.0000000   1.0000000
 Leave Link  101 at Wed Jan 12 16:38:34 2022, MaxMem=   402653184 cpu:               6.1 elap:               1.0
 (Enter /work/01114/jfonner/frontera/gaussian/16rC.01/g16/l202.exe)
                          Input orientation:                          
 ---------------------------------------------------------------------
 Center     Atomic      Atomic             Coordinates (Angstroms)
 Number     Number       Type             X           Y           Z
 ---------------------------------------------------------------------
      1          6           0        3.006000    0.047000   14.361000
      2          8           0        2.958000   -1.169000   14.515000
      3          7           0        3.481000    0.887000   15.262000
      4          6           0        4.163000    0.392000   16.442000
      5          6           0        3.424000    0.965000   17.631000
      6          8           0        3.136000    2.110000   17.612000
      7          7           0        3.173000    0.129000   18.647000
      8          6           0        2.559000    0.516000   19.903000
      9          6           0        5.688000    0.750000   16.389000
     10          8           0        6.264000    0.130000   15.236000
     11          6           0        3.350000   -0.122000   21.014000
     12          8           0        3.366000   -1.339000   21.140000
     13          7           0        4.067000    0.688000   21.768000
     14          6           0        4.888000    0.205000   22.851000
     15          6           0        4.350000    0.769000   24.174000
     16          8           0        4.161000    1.981000   24.269000
     17          7           0        4.065000   -0.120000   25.151000
     18          6           0        3.720000    0.313000   26.515000
     19          6           0        1.138000   -0.021000   19.983000
     20          8           0        0.393000    0.394000   18.824000
     21          6           0        0.486000    0.501000   21.167000
     22          1           0        2.702453    0.501239   13.440986
     23          1           0        6.213697    0.362191   17.236435
     24          1           0        5.910429    0.488700   22.712965
     25          1           0        4.574104    0.191985   27.148058
     26          1           0        2.864154   -0.202190   26.898414
 ---------------------------------------------------------------------
                    Distance matrix (angstroms):
                    1          2          3          4          5
     1  C    0.000000
     2  O    1.226652   0.000000
     3  N    1.320237   2.249150   0.000000
     4  C    2.405875   2.757186   1.450017   0.000000
     5  C    3.422039   3.805334   2.370969   1.512670   0.000000
     6  O    3.852515   4.513860   2.671564   2.318438   1.180818
     7  N    4.290036   4.336410   3.482478   2.431315   1.339460
     8  C    5.579743   5.659414   4.746220   3.816636   2.472208
     9  C    3.435130   3.827184   2.481884   1.567354   2.591232
    10  O    3.374474   3.624483   2.884235   2.436654   3.807736
    11  C    6.664031   6.594458   5.841297   4.672082   3.554115
    12  O    6.928596   6.639728   6.286429   5.069790   4.198197
    13  N    7.510010   7.568642   6.535368   5.335083   4.195825
    14  C    8.697528   8.666122   7.748399   6.452587   5.474422
    15  C    9.930891   9.949361   8.955045   7.743444   6.611107
    16  O   10.160849  10.320379   9.098642   7.986667   6.755625
    17  N   10.843130  10.744782   9.957280   8.724588   7.624861
    18  C   12.177860  12.115154  11.270164  10.083046   8.912810
    19  C    5.924604   5.876166   5.348079   4.675455   3.424894
    20  O    5.183295   5.252587   4.739898   4.459465   3.307000
    21  C    7.271737   7.290322   6.632348   5.988141   4.620653
    22  H    1.070000   2.002126   2.017682   3.339344   4.276906
    23  H    4.319351   4.511133   3.411957   2.199403   2.881227
    24  H    8.853594   8.869692   7.847143   6.510596   5.677637
    25  H   12.883665  12.808521  11.956433  10.715815   9.617416
    26  H   12.540692  12.421452  11.703545  10.553514   9.357388
                    6          7          8          9         10
     6  O    0.000000
     7  N    2.235387   0.000000
     8  C    2.849991   1.450621   0.000000
     9  C    3.139750   3.436485   4.711008   0.000000
    10  O    4.398882   4.603173   5.971341   1.430239   0.000000
    11  C    4.074460   2.386843   1.505671   5.255212   6.476124
    12  O    4.939158   2.899538   2.371169   5.685737   6.738960
    13  N    4.490120   3.294292   2.404553   5.618285   6.914130
    14  C    5.843428   4.540993   3.769836   6.534100   7.738684
    15  C    6.806756   5.687061   4.638225   7.899166   9.162945
    16  O    6.736684   6.001078   4.875919   8.120437   9.457478
    17  N    7.916594   6.569603   5.496730   8.953417  10.159002
    18  C    9.101301   7.889137   6.716225  10.324721  11.563791
    19  C    3.762287   2.438979   1.521187   5.849254   6.988039
    20  O    3.455090   2.798205   2.422949   5.838920   6.885643
    21  C    4.716928   3.702533   2.428014   7.067679   8.288527
    22  H    4.491485   5.240473   6.463623   4.203113   4.005560
    23  H    3.559228   3.360046   4.526703   1.070000   2.014493
    24  H    6.028757   4.914771   4.373640   6.333268   7.493910
    25  H    9.832768   8.615976   7.527051  10.830950  12.031489
    26  H    9.573798   8.263831   7.038802  10.923761  12.152415
                   11         12         13         14         15
    11  C    0.000000
    12  O    1.223610   0.000000
    13  N    1.318600   2.234841   0.000000
    14  C    2.418045   2.761873   1.442296   0.000000
    15  C    3.432125   3.823228   2.423940   1.535535   0.000000
    16  O    3.959211   4.630882   2.817035   2.386091   1.230321
    17  N    4.198333   4.250022   3.478154   2.464336   1.351323
    18  C    5.530563   5.634274   4.774415   3.847179   2.466803
    19  C    2.442561   2.835447   3.502563   4.726415   5.339057
    20  O    3.715670   4.147996   4.717186   6.038003   6.664906
    21  C    2.934967   3.417708   3.635895   4.722402   4.903506
    22  H    7.626158   7.943651   8.440144   9.665027  10.862030
    23  H    4.764997   5.122621   5.024892   5.771093   7.195045
    24  H    3.132927   3.505542   2.081084   1.070000   2.155952
    25  H    6.262881   6.316660   5.426620   4.308527   3.037794
    26  H    5.904981   5.890969   5.344195   4.543492   3.251673
                   16         17         18         19         20
    16  O    0.000000
    17  N    2.280645   0.000000
    18  C    2.832176   1.472077   0.000000
    19  C    5.613941   5.940148   7.031735   0.000000
    20  O    6.809142   7.333397   8.380153   1.438934   0.000000
    21  C    5.031742   5.391395   6.252616   1.448946   2.347285
    22  H   11.025559  11.805376  13.114903   6.746717   5.858491
    23  H    7.502738   8.215214   9.607950   5.783870   6.033398
    24  H    2.776456   3.117713   4.391391   5.521647   6.750929
    25  H    3.414704   2.084409   1.070000   7.949228   9.317316
    26  H    3.655400   2.121849   1.070000   7.129893   8.465117
                   21         22         23         24         25
    21  C    0.000000
    22  H    8.037659   0.000000
    23  H    6.948030   5.172389   0.000000
    24  H    5.640442   9.811262   5.486379   0.000000
    25  H    7.251285  13.837722  10.047761   4.641536   0.000000
    26  H    6.244933  13.476770  10.241669   5.222557   1.772463
                   26
    26  H    0.000000
 Stoichiometry    C11H5N4O6(1+)
 Framework group  C1[X(C11H5N4O6)]
 Deg. of freedom    72
 Full point group                 C1      NOp   1
 Largest Abelian subgroup         C1      NOp   1
 Largest concise Abelian subgroup C1      NOp   1
                         Standard orientation:                         
 ---------------------------------------------------------------------
 Center     Atomic      Atomic             Coordinates (Angstroms)
 Number     Number       Type             X           Y           Z
 ---------------------------------------------------------------------
      1          6           0        5.296085    0.462130   -0.166163
      2          8           0        5.171818    0.598780   -1.378830
      3          7           0        4.374412   -0.070169    0.614992
      4          6           0        3.206160   -0.711152    0.043260
      5          6           0        2.004271   -0.012472    0.639483
      6          8           0        1.995638    0.191518    1.802515
      7          7           0        1.009198    0.301400   -0.200437
      8          6           0       -0.255260    0.889110    0.199621
      9          6           0        3.248922   -2.258273    0.290618
     10          8           0        4.416127   -2.790871   -0.341488
     11          6           0       -1.351153    0.149615   -0.520942
     12          8           0       -1.447467    0.222430   -1.738581
     13          7           0       -2.125376   -0.622268    0.216269
     14          6           0       -3.197085   -1.403022   -0.351252
     15          6           0       -4.532912   -0.903788    0.218135
     16          8           0       -4.657241   -0.803090    1.438009
     17          7           0       -5.487672   -0.552261   -0.671211
     18          6           0       -6.861482   -0.235885   -0.247465
     19          6           0       -0.320753    2.345586   -0.234426
     20          8           0        0.828517    3.055274    0.261612
     21          6           0       -1.516485    2.961188    0.304742
     22          1           0        6.205050    0.729339    0.331110
     23          1           0        2.410677   -2.752071   -0.154813
     24          1           0       -3.067010   -2.443737   -0.139376
     25          1           0       -7.492240   -1.077194   -0.445566
     26          1           0       -7.231385    0.656183   -0.708209
 ---------------------------------------------------------------------
 Rotational constants (GHZ):           0.6333556           0.1282452           0.1162134
 Leave Link  202 at Wed Jan 12 16:38:35 2022, MaxMem=   402653184 cpu:               2.7 elap:               0.5
 (Enter /work/01114/jfonner/frontera/gaussian/16rC.01/g16/l301.exe)
 Standard basis: 6-31G (6D, 7F)
 Ernie: Thresh=  0.10000D-02 Tol=  0.10000D-05 Strict=F.
 There are   199 symmetry adapted cartesian basis functions of A   symmetry.
 There are   199 symmetry adapted basis functions of A   symmetry.
   199 basis functions,   482 primitive gaussians,   199 cartesian basis functions
    73 alpha electrons       73 beta electrons
       nuclear repulsion energy      1446.8572978355 Hartrees.
 IExCor= 4639 DFT=T Ex+Corr=wB97XD ExCW=0 ScaHFX=  1.000000
 ScaDFX=  1.000000  1.000000  1.000000  1.000000 ScalE2=  1.000000  1.000000
 IRadAn=      5 IRanWt=     -1 IRanGd=            0 ICorTp=0 IEmpDi=121
 HFx  wShort=  0.000000 wLong=  0.200000 cFull=  0.222036 cShort=  0.000000 cLong=  0.777964
 DFx  wShort=  0.000000 wLong=  0.200000 cFull=  0.000000 cShort=  0.000000 cLong=  1.000000
 NAtoms=   26 NActive=   26 NUniq=   26 SFac= 1.00D+00 NAtFMM=   60 NAOKFM=F Big=F
 Integral buffers will be    131072 words long.
 Raffenetti 2 integral format.
 Two-electron integral symmetry is turned on.
 R6Disp:  Grimme-D2 Dispersion energy=       -0.0126240042 Hartrees.
 Nuclear repulsion after empirical dispersion term =     1446.8446738313 Hartrees.
 Leave Link  301 at Wed Jan 12 16:38:36 2022, MaxMem=   402653184 cpu:               4.1 elap:               1.1
 (Enter /work/01114/jfonner/frontera/gaussian/16rC.01/g16/l302.exe)
 NPDir=0 NMtPBC=     1 NCelOv=     1 NCel=       1 NClECP=     1 NCelD=      1
         NCelK=      1 NCelE2=     1 NClLst=     1 CellRange=     0.0.
 One-electron integrals computed using PRISM.
 One-electron integral symmetry used in STVInt
 NBasis=   199 RedAO= T EigKep=  3.18D-03  NBF=   199
 NBsUse=   199 1.00D-06 EigRej= -1.00D+00 NBFU=   199
 Precomputing XC quadrature grid using
 IXCGrd= 4 IRadAn=           5 IRanWt=          -1 IRanGd=           0 AccXCQ= 1.00D-12.
 Generated NRdTot=       0 NPtTot=           0 NUsed=           0 NTot=          32
 NSgBfM=   192   192   192   192   192 MxSgAt=    26 MxSgA2=    26.
 Leave Link  302 at Wed Jan 12 16:38:48 2022, MaxMem=   402653184 cpu:              72.7 elap:              12.2
 (Enter /work/01114/jfonner/frontera/gaussian/16rC.01/g16/l303.exe)
 DipDrv:  MaxL=1.
 Leave Link  303 at Wed Jan 12 16:38:50 2022, MaxMem=   402653184 cpu:              13.5 elap:               2.2
 (Enter /work/01114/jfonner/frontera/gaussian/16rC.01/g16/l401.exe)
 ExpMin= 1.61D-01 ExpMax= 5.48D+03 ExpMxC= 8.25D+02 IAcc=3 IRadAn=         5 AccDes= 0.00D+00
 Harris functional with IExCor= 4639 and IRadAn=       5 diagonalized for initial guess.
 HarFok:  IExCor= 4639 AccDes= 0.00D+00 IRadAn=         5 IDoV= 1 UseB2=F ITyADJ=14
 ICtDFT=  3500011 ScaDFX=  1.000000  1.000000  1.000000  1.000000
 FoFCou: FMM=F IPFlag=           0 FMFlag=      100000 FMFlg1=           0
         NFxFlg=           0 DoJE=T BraDBF=F KetDBF=T FulRan=T
         wScrn=  0.000000 ICntrl=       500 IOpCl=  0 I1Cent=   200000004 NGrid=           0
         NMat0=    1 NMatS0=      1 NMatT0=    0 NMatD0=    1 NMtDS0=    0 NMtDT0=    0
 Petite list used in FoFCou.
 Harris En= -1049.01829342816    
 JPrj=0 DoOrth=F DoCkMO=F.
 Leave Link  401 at Wed Jan 12 16:39:07 2022, MaxMem=   402653184 cpu:              89.5 elap:              16.9
 (Enter /work/01114/jfonner/frontera/gaussian/16rC.01/g16/l502.exe)
 Integral symmetry usage will be decided dynamically.
 Closed shell SCF:
 Using DIIS extrapolation, IDIIS=  1040.
 NGot=   402653184 LenX=   402559854 LenY=   402519812
 Requested convergence on RMS density matrix=1.00D-08 within 128 cycles.
 Requested convergence on MAX density matrix=1.00D-06.
 Requested convergence on             energy=1.00D-06.
 No special actions if energy rises.
 Fock matrices will be formed incrementally for  20 cycles.
 Integral accuracy reduced to 1.0D-05 until final iterations.

 Cycle   1  Pass 0  IDiag  1:
 FoFJK:  IHMeth= 1 ICntrl=       0 DoSepK=T KAlg= 0 I1Cent=           0 FoldK=F
 IRaf=         1 NMat=       1 IRICut=       1 DoRegI=T DoRafI=F ISym2E= 0 IDoP0=0 IntGTp=1.
 FoFCou: FMM=F IPFlag=           0 FMFlag=      100000 FMFlg1=           0
         NFxFlg=           0 DoJE=T BraDBF=F KetDBF=F FulRan=T
         wScrn=  0.000000 ICntrl=       500 IOpCl=  0 I1Cent=           0 NGrid=           0
         NMat0=    1 NMatS0=      1 NMatT0=    0 NMatD0=    1 NMtDS0=    0 NMtDT0=    0
 Symmetry not used in FoFCou.
 E= -1090.03548042243    
 DIIS: error= 2.96D-02 at cycle   1 NSaved=   1.
 NSaved= 1 IEnMin= 1 EnMin= -1090.03548042243     IErMin= 1 ErrMin= 2.96D-02
 ErrMax= 2.96D-02  0.00D+00 EMaxC= 1.00D-01 BMatC= 5.82D-01 BMatP= 5.82D-01
 IDIUse=3 WtCom= 7.04D-01 WtEn= 2.96D-01
 Coeff-Com:  0.100D+01
 Coeff-En:   0.100D+01
 Coeff:      0.100D+01
 Gap=     0.147 Goal=   None    Shift=    0.000
 GapD=    0.147 DampG=1.000 DampE=0.500 DampFc=0.5000 IDamp=-1.
 Damping current iteration by 5.00D-01
 RMSDP=1.11D-02 MaxDP=3.97D-01              OVMax= 8.27D-01

 Cycle   2  Pass 0  IDiag  1:
 RMSU=  5.55D-03    CP:  9.94D-01
 E= -1089.07506226440     Delta-E=        0.960418158035 Rises=F Damp=T
 DIIS: error= 3.95D-02 at cycle   2 NSaved=   2.
 NSaved= 2 IEnMin= 1 EnMin= -1090.03548042243     IErMin= 1 ErrMin= 2.96D-02
 ErrMax= 3.95D-02  0.00D+00 EMaxC= 1.00D-01 BMatC= 4.73D-01 BMatP= 5.82D-01
 IDIUse=3 WtCom= 6.05D-01 WtEn= 3.95D-01
 Coeff-Com:  0.444D+00 0.556D+00
 Coeff-En:   0.784D+00 0.216D+00
 Coeff:      0.578D+00 0.422D+00
 Gap=     0.483 Goal=   None    Shift=    0.000
 RMSDP=5.21D-03 MaxDP=2.86D-01 DE= 9.60D-01 OVMax= 7.51D-01

 Cycle   3  Pass 0  IDiag  1:
 RMSU=  4.44D-03    CP:  1.01D+00  5.22D-01
 E= -1090.14940297023     Delta-E=       -1.074340705829 Rises=F Damp=F
 DIIS: error= 3.88D-02 at cycle   3 NSaved=   3.
 NSaved= 3 IEnMin= 3 EnMin= -1090.14940297023     IErMin= 1 ErrMin= 2.96D-02
 ErrMax= 3.88D-02  0.00D+00 EMaxC= 1.00D-01 BMatC= 3.23D-01 BMatP= 4.73D-01
 IDIUse=3 WtCom= 6.12D-01 WtEn= 3.88D-01
 EnCoef did     2 forward-backward iterations
 Coeff-Com:  0.107D+00 0.390D+00 0.504D+00
 Coeff-En:   0.157D-01 0.241D+00 0.743D+00
 Coeff:      0.715D-01 0.332D+00 0.597D+00
 Gap=     0.224 Goal=   None    Shift=    0.000
 RMSDP=3.08D-03 MaxDP=1.06D-01 DE=-1.07D+00 OVMax= 9.95D-02

 Cycle   4  Pass 0  IDiag  1:
 RMSU=  2.35D-03    CP:  1.01D+00  3.81D-01  5.91D-01
 E= -1090.34997828590     Delta-E=       -0.200575315673 Rises=F Damp=F
 DIIS: error= 1.62D-02 at cycle   4 NSaved=   4.
 NSaved= 4 IEnMin= 4 EnMin= -1090.34997828590     IErMin= 4 ErrMin= 1.62D-02
 ErrMax= 1.62D-02  0.00D+00 EMaxC= 1.00D-01 BMatC= 1.36D-01 BMatP= 3.23D-01
 IDIUse=3 WtCom= 8.38D-01 WtEn= 1.62D-01
 EnCoef did     2 forward-backward iterations
 Coeff-Com: -0.653D-01 0.314D+00 0.303D+00 0.449D+00
 Coeff-En:   0.000D+00 0.104D+00 0.161D+00 0.735D+00
 Coeff:     -0.547D-01 0.280D+00 0.280D+00 0.495D+00
 Gap=     0.131 Goal=   None    Shift=    0.000
 RMSDP=2.03D-03 MaxDP=7.78D-02 DE=-2.01D-01 OVMax= 7.90D-02

 Cycle   5  Pass 0  IDiag  1:
 RMSU=  1.33D-03    CP:  1.01D+00  4.73D-01  7.42D-01  4.58D-01
 E= -1090.41347044093     Delta-E=       -0.063492155034 Rises=F Damp=F
 DIIS: error= 1.52D-02 at cycle   5 NSaved=   5.
 NSaved= 5 IEnMin= 5 EnMin= -1090.41347044093     IErMin= 5 ErrMin= 1.52D-02
 ErrMax= 1.52D-02  0.00D+00 EMaxC= 1.00D-01 BMatC= 6.43D-02 BMatP= 1.36D-01
 IDIUse=3 WtCom= 8.48D-01 WtEn= 1.52D-01
 EnCoef did     2 forward-backward iterations
 Coeff-Com: -0.940D-01 0.188D+00-0.624D-01 0.369D+00 0.599D+00
 Coeff-En:   0.000D+00 0.474D-01 0.000D+00 0.258D+00 0.694D+00
 Coeff:     -0.797D-01 0.167D+00-0.530D-01 0.352D+00 0.613D+00
 Gap=     0.064 Goal=   None    Shift=    0.000
 RMSDP=1.35D-03 MaxDP=4.02D-02 DE=-6.35D-02 OVMax= 5.92D-02

 Cycle   6  Pass 0  IDiag  1:
 RMSU=  8.92D-04    CP:  1.01D+00  5.11D-01  6.57D-01  8.44D-01  1.09D+00
 E= -1090.48225234335     Delta-E=       -0.068781902413 Rises=F Damp=F
 DIIS: error= 7.43D-03 at cycle   6 NSaved=   6.
 NSaved= 6 IEnMin= 6 EnMin= -1090.48225234335     IErMin= 6 ErrMin= 7.43D-03
 ErrMax= 7.43D-03  0.00D+00 EMaxC= 1.00D-01 BMatC= 1.59D-02 BMatP= 6.43D-02
 IDIUse=3 WtCom= 9.26D-01 WtEn= 7.43D-02
 Coeff-Com: -0.757D-01 0.102D+00-0.170D+00 0.172D+00 0.445D+00 0.527D+00
 Coeff-En:   0.000D+00 0.000D+00 0.000D+00 0.000D+00 0.000D+00 0.100D+01
 Coeff:     -0.701D-01 0.946D-01-0.158D+00 0.159D+00 0.412D+00 0.562D+00
 Gap=     0.043 Goal=   None    Shift=    0.000
 RMSDP=8.78D-04 MaxDP=2.61D-02 DE=-6.88D-02 OVMax= 6.82D-02

 Cycle   7  Pass 0  IDiag  1:
 RMSU=  6.98D-04    CP:  1.01D+00  5.17D-01  6.09D-01  9.18D-01  1.41D+00
                    CP:  1.16D+00
 E= -1090.50384822673     Delta-E=       -0.021595883381 Rises=F Damp=F
 DIIS: error= 5.04D-03 at cycle   7 NSaved=   7.
 NSaved= 7 IEnMin= 7 EnMin= -1090.50384822673     IErMin= 7 ErrMin= 5.04D-03
 ErrMax= 5.04D-03  0.00D+00 EMaxC= 1.00D-01 BMatC= 4.05D-03 BMatP= 1.59D-02
 IDIUse=3 WtCom= 9.50D-01 WtEn= 5.04D-02
 Coeff-Com: -0.208D-01 0.376D-01-0.600D-01 0.120D-01-0.406D-01 0.317D+00
 Coeff-Com:  0.755D+00
 Coeff-En:   0.000D+00 0.000D+00 0.000D+00 0.000D+00 0.000D+00 0.000D+00
 Coeff-En:   0.100D+01
 Coeff:     -0.198D-01 0.357D-01-0.569D-01 0.114D-01-0.386D-01 0.301D+00
 Coeff:      0.767D+00
 Gap=     0.052 Goal=   None    Shift=    0.000
 RMSDP=9.42D-04 MaxDP=2.08D-02 DE=-2.16D-02 OVMax= 1.03D-01

 Cycle   8  Pass 0  IDiag  1:
 RMSU=  5.22D-04    CP:  1.01D+00  5.57D-01  5.55D-01  9.67D-01  1.48D+00
                    CP:  1.66D+00  1.76D+00
 E= -1090.51531556487     Delta-E=       -0.011467338143 Rises=F Damp=F
 DIIS: error= 1.56D-03 at cycle   8 NSaved=   8.
 NSaved= 8 IEnMin= 8 EnMin= -1090.51531556487     IErMin= 8 ErrMin= 1.56D-03
 ErrMax= 1.56D-03  0.00D+00 EMaxC= 1.00D-01 BMatC= 1.17D-03 BMatP= 4.05D-03
 IDIUse=3 WtCom= 9.84D-01 WtEn= 1.56D-02
 Coeff-Com:  0.659D-02-0.997D-03 0.254D-01 0.159D-01-0.107D+00 0.335D-01
 Coeff-Com:  0.344D+00 0.683D+00
 Coeff-En:   0.000D+00 0.000D+00 0.000D+00 0.000D+00 0.000D+00 0.000D+00
 Coeff-En:   0.000D+00 0.100D+01
 Coeff:      0.649D-02-0.981D-03 0.250D-01 0.157D-01-0.105D+00 0.330D-01
 Coeff:      0.338D+00 0.688D+00
 Gap=     0.069 Goal=   None    Shift=    0.000
 RMSDP=6.69D-04 MaxDP=1.46D-02 DE=-1.15D-02 OVMax= 8.74D-02

 Cycle   9  Pass 0  IDiag  1:
 RMSU=  2.76D-04    CP:  1.01D+00  5.87D-01  5.27D-01  9.55D-01  1.40D+00
                    CP:  1.80D+00  2.41D+00  1.61D+00
 E= -1090.51517003219     Delta-E=        0.000145532683 Rises=F Damp=F
 DIIS: error= 4.21D-03 at cycle   9 NSaved=   9.
 NSaved= 9 IEnMin= 8 EnMin= -1090.51531556487     IErMin= 8 ErrMin= 1.56D-03
 ErrMax= 4.21D-03  0.00D+00 EMaxC= 1.00D-01 BMatC= 3.42D-03 BMatP= 1.17D-03
 IDIUse=3 WtCom= 9.84D-01 WtEn= 1.56D-02
 Coeff-Com:  0.655D-02-0.974D-02 0.210D-01 0.301D-01-0.361D-01 0.693D-01
 Coeff-Com:  0.140D+00 0.402D+00 0.377D+00
 Coeff-En:   0.000D+00 0.000D+00 0.000D+00 0.000D+00 0.000D+00 0.000D+00
 Coeff-En:   0.000D+00 0.545D+00 0.455D+00
 Coeff:      0.645D-02-0.959D-02 0.207D-01 0.296D-01-0.355D-01 0.683D-01
 Coeff:      0.138D+00 0.404D+00 0.378D+00
 Gap=     0.076 Goal=   None    Shift=    0.000
 RMSDP=2.08D-04 MaxDP=3.44D-03 DE= 1.46D-04 OVMax= 2.34D-02

 Cycle  10  Pass 0  IDiag  1:
 RMSU=  8.45D-05    CP:  1.01D+00  5.90D-01  5.27D-01  9.34D-01  1.33D+00
                    CP:  1.77D+00  2.51D+00  1.87D+00  1.14D+00
 E= -1090.51574113709     Delta-E=       -0.000571104907 Rises=F Damp=F
 DIIS: error= 4.07D-03 at cycle  10 NSaved=  10.
 NSaved=10 IEnMin=10 EnMin= -1090.51574113709     IErMin= 8 ErrMin= 1.56D-03
 ErrMax= 4.07D-03  0.00D+00 EMaxC= 1.00D-01 BMatC= 3.12D-03 BMatP= 1.17D-03
 IDIUse=3 WtCom= 9.84D-01 WtEn= 1.56D-02
 Coeff-Com:  0.611D-02-0.948D-02 0.174D-01 0.271D-01-0.336D-01 0.847D-01
 Coeff-Com:  0.159D+00 0.333D+00 0.234D+00 0.181D+00
 Coeff-En:   0.000D+00 0.000D+00 0.000D+00 0.000D+00 0.000D+00 0.000D+00
 Coeff-En:   0.000D+00 0.173D+00 0.000D+00 0.827D+00
 Coeff:      0.601D-02-0.933D-02 0.171D-01 0.267D-01-0.331D-01 0.834D-01
 Coeff:      0.157D+00 0.331D+00 0.230D+00 0.192D+00
 Gap=     0.077 Goal=   None    Shift=    0.000
 RMSDP=3.38D-05 MaxDP=6.11D-04 DE=-5.71D-04 OVMax= 2.59D-03

 Cycle  11  Pass 0  IDiag  1:
 RMSU=  1.88D-05    CP:  1.01D+00  5.89D-01  5.29D-01  9.31D-01  1.32D+00
                    CP:  1.76D+00  2.50D+00  1.88D+00  1.17D+00  1.07D+00
 E= -1090.51624319335     Delta-E=       -0.000502056259 Rises=F Damp=F
 DIIS: error= 3.84D-03 at cycle  11 NSaved=  11.
 NSaved=11 IEnMin=11 EnMin= -1090.51624319335     IErMin= 8 ErrMin= 1.56D-03
 ErrMax= 3.84D-03  0.00D+00 EMaxC= 1.00D-01 BMatC= 2.76D-03 BMatP= 1.17D-03
 IDIUse=3 WtCom= 9.84D-01 WtEn= 1.56D-02
 Coeff-Com:  0.589D-02-0.599D-02 0.654D-02-0.286D-02-0.586D-01 0.691D-01
 Coeff-Com:  0.281D+00-0.467D-01-0.108D+01-0.532D+01 0.715D+01
 Coeff-En:   0.000D+00 0.000D+00 0.000D+00 0.000D+00 0.000D+00 0.000D+00
 Coeff-En:   0.000D+00 0.000D+00 0.000D+00 0.000D+00 0.100D+01
 Coeff:      0.580D-02-0.589D-02 0.644D-02-0.281D-02-0.577D-01 0.680D-01
 Coeff:      0.276D+00-0.459D-01-0.107D+01-0.523D+01 0.706D+01
 Gap=     0.092 Goal=   None    Shift=    0.000
 RMSDP=3.71D-04 MaxDP=7.28D-03 DE=-5.02D-04 OVMax= 2.57D-02

 Cycle  12  Pass 0  IDiag  1:
 RMSU=  1.41D-04    CP:  1.01D+00  5.85D-01  5.46D-01  8.87D-01  1.20D+00
                    CP:  1.66D+00  2.51D+00  2.13D+00  1.62D+00  2.95D+00
                    CP:  3.00D+00
 E= -1090.51915697322     Delta-E=       -0.002913779866 Rises=F Damp=F
 DIIS: error= 1.70D-03 at cycle  12 NSaved=  12.
 NSaved=12 IEnMin=12 EnMin= -1090.51915697322     IErMin= 8 ErrMin= 1.56D-03
 ErrMax= 1.70D-03  0.00D+00 EMaxC= 1.00D-01 BMatC= 8.59D-04 BMatP= 1.17D-03
 IDIUse=3 WtCom= 9.84D-01 WtEn= 1.56D-02
 Coeff-Com:  0.467D-02-0.245D-02 0.536D-02-0.850D-02-0.523D-01 0.958D-03
 Coeff-Com:  0.203D+00-0.164D+00-0.131D+01-0.717D+01 0.882D+01 0.675D+00
 Coeff-En:   0.000D+00 0.000D+00 0.000D+00 0.000D+00 0.000D+00 0.000D+00
 Coeff-En:   0.000D+00 0.000D+00 0.000D+00 0.000D+00 0.000D+00 0.100D+01
 Coeff:      0.459D-02-0.241D-02 0.528D-02-0.837D-02-0.515D-01 0.943D-03
 Coeff:      0.200D+00-0.161D+00-0.129D+01-0.706D+01 0.868D+01 0.680D+00
 Gap=     0.105 Goal=   None    Shift=    0.000
 RMSDP=3.35D-04 MaxDP=5.88D-03 DE=-2.91D-03 OVMax= 1.90D-02

 Cycle  13  Pass 0  IDiag  1:
 RMSU=  1.56D-04    CP:  1.01D+00  5.79D-01  5.61D-01  8.52D-01  1.08D+00
                    CP:  1.56D+00  2.54D+00  2.34D+00  1.92D+00  3.00D+00
                    CP:  3.00D+00  2.03D+00
 E= -1090.52049157791     Delta-E=       -0.001334604688 Rises=F Damp=F
 DIIS: error= 5.35D-04 at cycle  13 NSaved=  13.
 NSaved=13 IEnMin=13 EnMin= -1090.52049157791     IErMin=13 ErrMin= 5.35D-04
 ErrMax= 5.35D-04  0.00D+00 EMaxC= 1.00D-01 BMatC= 2.69D-05 BMatP= 8.59D-04
 IDIUse=3 WtCom= 9.95D-01 WtEn= 5.35D-03
 Coeff-Com: -0.138D-03 0.284D-03 0.344D-02 0.793D-02 0.259D-02-0.400D-01
 Coeff-Com: -0.370D-01 0.579D-01 0.964D-01-0.470D+00 0.272D+00-0.169D-01
 Coeff-Com:  0.112D+01
 Coeff-En:   0.000D+00 0.000D+00 0.000D+00 0.000D+00 0.000D+00 0.000D+00
 Coeff-En:   0.000D+00 0.000D+00 0.000D+00 0.000D+00 0.000D+00 0.000D+00
 Coeff-En:   0.100D+01
 Coeff:     -0.137D-03 0.283D-03 0.342D-02 0.789D-02 0.257D-02-0.398D-01
 Coeff:     -0.368D-01 0.576D-01 0.958D-01-0.468D+00 0.270D+00-0.168D-01
 Coeff:      0.112D+01
 Gap=     0.109 Goal=   None    Shift=    0.000
 RMSDP=1.53D-04 MaxDP=2.29D-03 DE=-1.33D-03 OVMax= 1.29D-02

 Cycle  14  Pass 0  IDiag  1:
 RMSU=  7.58D-05    CP:  1.01D+00  5.76D-01  5.63D-01  8.50D-01  1.06D+00
                    CP:  1.55D+00  2.55D+00  2.36D+00  1.95D+00  3.00D+00
                    CP:  3.00D+00  2.83D+00  1.37D+00
 E= -1090.52071157607     Delta-E=       -0.000219998164 Rises=F Damp=F
 DIIS: error= 5.13D-04 at cycle  14 NSaved=  14.
 NSaved=14 IEnMin=14 EnMin= -1090.52071157607     IErMin=14 ErrMin= 5.13D-04
 ErrMax= 5.13D-04  0.00D+00 EMaxC= 1.00D-01 BMatC= 2.79D-05 BMatP= 2.69D-05
 IDIUse=3 WtCom= 9.95D-01 WtEn= 5.13D-03
 Coeff-Com: -0.125D-02 0.121D-02 0.555D-03 0.724D-02 0.126D-01-0.320D-01
 Coeff-Com: -0.639D-01 0.578D-01 0.278D+00 0.928D+00-0.128D+01-0.179D+00
 Coeff-Com:  0.673D+00 0.593D+00
 Coeff-En:   0.000D+00 0.000D+00 0.000D+00 0.000D+00 0.000D+00 0.000D+00
 Coeff-En:   0.000D+00 0.000D+00 0.000D+00 0.000D+00 0.000D+00 0.000D+00
 Coeff-En:   0.000D+00 0.100D+01
 Coeff:     -0.125D-02 0.120D-02 0.552D-03 0.721D-02 0.126D-01-0.318D-01
 Coeff:     -0.636D-01 0.575D-01 0.276D+00 0.924D+00-0.127D+01-0.178D+00
 Coeff:      0.670D+00 0.595D+00
 Gap=     0.110 Goal=   None    Shift=    0.000
 RMSDP=7.61D-05 MaxDP=1.29D-03 DE=-2.20D-04 OVMax= 7.70D-03

 Cycle  15  Pass 0  IDiag  1:
 RMSU=  3.73D-05    CP:  1.01D+00  5.75D-01  5.64D-01  8.53D-01  1.06D+00
                    CP:  1.55D+00  2.56D+00  2.35D+00  1.94D+00  3.00D+00
                    CP:  3.00D+00  3.00D+00  1.54D+00  1.54D+00
 E= -1090.52078935363     Delta-E=       -0.000077777564 Rises=F Damp=F
 DIIS: error= 4.74D-04 at cycle  15 NSaved=  15.
 NSaved=15 IEnMin=15 EnMin= -1090.52078935363     IErMin=15 ErrMin= 4.74D-04
 ErrMax= 4.74D-04  0.00D+00 EMaxC= 1.00D-01 BMatC= 3.54D-05 BMatP= 2.69D-05
 IDIUse=3 WtCom= 9.95D-01 WtEn= 5.13D-03
 Coeff-Com: -0.493D-04 0.319D-03-0.277D-02-0.510D-02-0.223D-02 0.349D-02
 Coeff-Com:  0.744D-02-0.590D-01-0.972D-01 0.644D-01 0.229D+00-0.291D-01
 Coeff-Com: -0.620D+00 0.198D-01 0.149D+01
 Coeff-En:   0.000D+00 0.000D+00 0.000D+00 0.000D+00 0.000D+00 0.000D+00
 Coeff-En:   0.000D+00 0.000D+00 0.000D+00 0.000D+00 0.000D+00 0.000D+00
 Coeff-En:   0.000D+00 0.000D+00 0.100D+01
 Coeff:     -0.490D-04 0.317D-03-0.275D-02-0.507D-02-0.222D-02 0.348D-02
 Coeff:      0.740D-02-0.587D-01-0.967D-01 0.641D-01 0.228D+00-0.289D-01
 Coeff:     -0.617D+00 0.197D-01 0.149D+01
 Gap=     0.109 Goal=   None    Shift=    0.000
 RMSDP=1.38D-04 MaxDP=2.13D-03 DE=-7.78D-05 OVMax= 1.33D-02

 Cycle  16  Pass 0  IDiag  1:
 RMSU=  3.94D-05    CP:  1.01D+00  5.76D-01  5.61D-01  8.64D-01  1.08D+00
                    CP:  1.57D+00  2.58D+00  2.33D+00  1.90D+00  3.00D+00
                    CP:  3.00D+00  3.00D+00  1.76D+00  2.75D+00  3.00D+00
 E= -1090.52093908310     Delta-E=       -0.000149729468 Rises=F Damp=F
 DIIS: error= 2.71D-04 at cycle  16 NSaved=  16.
 NSaved=16 IEnMin=16 EnMin= -1090.52093908310     IErMin=16 ErrMin= 2.71D-04
 ErrMax= 2.71D-04  0.00D+00 EMaxC= 1.00D-01 BMatC= 1.10D-05 BMatP= 2.69D-05
 IDIUse=3 WtCom= 9.97D-01 WtEn= 2.71D-03
 Coeff-Com:  0.310D-03 0.205D-03-0.164D-02-0.432D-02-0.603D-02 0.769D-02
 Coeff-Com:  0.265D-01-0.594D-01-0.176D+00-0.511D+00 0.839D+00 0.678D-01
 Coeff-Com: -0.528D+00-0.260D+00 0.588D+00 0.102D+01
 Coeff-En:   0.000D+00 0.000D+00 0.000D+00 0.000D+00 0.000D+00 0.000D+00
 Coeff-En:   0.000D+00 0.000D+00 0.000D+00 0.000D+00 0.000D+00 0.000D+00
 Coeff-En:   0.000D+00 0.000D+00 0.000D+00 0.100D+01
 Coeff:      0.309D-03 0.204D-03-0.163D-02-0.430D-02-0.601D-02 0.767D-02
 Coeff:      0.264D-01-0.593D-01-0.176D+00-0.510D+00 0.837D+00 0.676D-01
 Coeff:     -0.527D+00-0.259D+00 0.586D+00 0.102D+01
 Gap=     0.109 Goal=   None    Shift=    0.000
 RMSDP=9.52D-05 MaxDP=1.47D-03 DE=-1.50D-04 OVMax= 8.81D-03

 Cycle  17  Pass 0  IDiag  1:
 RMSU=  6.89D-05    CP:  1.01D+00  5.76D-01  5.58D-01  8.71D-01  1.09D+00
                    CP:  1.59D+00  2.59D+00  2.32D+00  1.88D+00  3.00D+00
                    CP:  3.00D+00  3.00D+00  1.89D+00  3.00D+00  3.00D+00
                    CP:  1.74D+00
 E= -1090.52100233925     Delta-E=       -0.000063256145 Rises=F Damp=F
 DIIS: error= 1.28D-04 at cycle  17 NSaved=  17.
 NSaved=17 IEnMin=17 EnMin= -1090.52100233925     IErMin=17 ErrMin= 1.28D-04
 ErrMax= 1.28D-04  0.00D+00 EMaxC= 1.00D-01 BMatC= 2.94D-06 BMatP= 1.10D-05
 IDIUse=3 WtCom= 9.99D-01 WtEn= 1.28D-03
 Coeff-Com:  0.431D-04 0.790D-04 0.285D-03 0.102D-02-0.199D-02-0.101D-02
 Coeff-Com:  0.109D-01-0.890D-02-0.671D-01-0.496D+00 0.555D+00 0.586D-01
 Coeff-Com:  0.765D-01-0.194D+00-0.663D+00 0.869D+00 0.861D+00
 Coeff-En:   0.000D+00 0.000D+00 0.000D+00 0.000D+00 0.000D+00 0.000D+00
 Coeff-En:   0.000D+00 0.000D+00 0.000D+00 0.000D+00 0.000D+00 0.000D+00
 Coeff-En:   0.000D+00 0.000D+00 0.000D+00 0.000D+00 0.100D+01
 Coeff:      0.430D-04 0.789D-04 0.285D-03 0.102D-02-0.199D-02-0.101D-02
 Coeff:      0.108D-01-0.888D-02-0.670D-01-0.495D+00 0.554D+00 0.585D-01
 Coeff:      0.764D-01-0.194D+00-0.662D+00 0.868D+00 0.861D+00
 Gap=     0.109 Goal=   None    Shift=    0.000
 RMSDP=8.02D-05 MaxDP=1.42D-03 DE=-6.33D-05 OVMax= 7.68D-03

 Cycle  18  Pass 0  IDiag  1:
 RMSU=  1.58D-05    CP:  1.01D+00  5.77D-01  5.56D-01  8.76D-01  1.09D+00
                    CP:  1.60D+00  2.60D+00  2.31D+00  1.88D+00  3.00D+00
                    CP:  3.00D+00  3.00D+00  2.03D+00  3.00D+00  3.00D+00
                    CP:  2.49D+00  1.97D+00
 E= -1090.52103258628     Delta-E=       -0.000030247028 Rises=F Damp=F
 DIIS: error= 8.51D-05 at cycle  18 NSaved=  18.
 NSaved=18 IEnMin=18 EnMin= -1090.52103258628     IErMin=18 ErrMin= 8.51D-05
 ErrMax= 8.51D-05  0.00D+00 EMaxC= 1.00D-01 BMatC= 8.01D-07 BMatP= 2.94D-06
 IDIUse=1 WtCom= 1.00D+00 WtEn= 0.00D+00
 Coeff-Com: -0.100D-03 0.994D-04 0.564D-03 0.185D-02 0.491D-03-0.122D-02
 Coeff-Com:  0.578D-03 0.111D-01 0.127D-01-0.147D+00 0.954D-01 0.413D-02
 Coeff-Com:  0.168D+00-0.490D-02-0.486D+00 0.236D+00 0.337D+00 0.771D+00
 Coeff:     -0.100D-03 0.994D-04 0.564D-03 0.185D-02 0.491D-03-0.122D-02
 Coeff:      0.578D-03 0.111D-01 0.127D-01-0.147D+00 0.954D-01 0.413D-02
 Coeff:      0.168D+00-0.490D-02-0.486D+00 0.236D+00 0.337D+00 0.771D+00
 Gap=     0.108 Goal=   None    Shift=    0.000
 RMSDP=2.37D-05 MaxDP=4.67D-04 DE=-3.02D-05 OVMax= 2.99D-03

 Cycle  19  Pass 0  IDiag  1:
 RMSU=  1.08D-05    CP:  1.01D+00  5.77D-01  5.56D-01  8.76D-01  1.09D+00
                    CP:  1.60D+00  2.60D+00  2.31D+00  1.88D+00  3.00D+00
                    CP:  3.00D+00  3.00D+00  2.07D+00  3.00D+00  3.00D+00
                    CP:  2.70D+00  2.22D+00  1.41D+00
 E= -1090.52103994727     Delta-E=       -0.000007360997 Rises=F Damp=F
 DIIS: error= 9.66D-05 at cycle  19 NSaved=  19.
 NSaved=19 IEnMin=19 EnMin= -1090.52103994727     IErMin=18 ErrMin= 8.51D-05
 ErrMax= 9.66D-05  0.00D+00 EMaxC= 1.00D-01 BMatC= 9.56D-07 BMatP= 8.01D-07
 IDIUse=1 WtCom= 1.00D+00 WtEn= 0.00D+00
 Coeff-Com: -0.864D-04 0.908D-05-0.199D-03-0.435D-03 0.150D-02 0.375D-02
 Coeff-Com: -0.645D-02 0.314D-02 0.511D-01 0.278D+00-0.341D+00-0.506D-01
 Coeff-Com: -0.116D-01 0.170D+00 0.279D+00-0.441D+00-0.663D+00 0.425D+00
 Coeff-Com:  0.130D+01
 Coeff:     -0.864D-04 0.908D-05-0.199D-03-0.435D-03 0.150D-02 0.375D-02
 Coeff:     -0.645D-02 0.314D-02 0.511D-01 0.278D+00-0.341D+00-0.506D-01
 Coeff:     -0.116D-01 0.170D+00 0.279D+00-0.441D+00-0.663D+00 0.425D+00
 Coeff:      0.130D+01
 Gap=     0.109 Goal=   None    Shift=    0.000
 RMSDP=4.24D-05 MaxDP=8.02D-04 DE=-7.36D-06 OVMax= 5.38D-03

 Cycle  20  Pass 0  IDiag  1:
 RMSU=  1.05D-05    CP:  1.01D+00  5.77D-01  5.57D-01  8.75D-01  1.09D+00
                    CP:  1.60D+00  2.60D+00  2.32D+00  1.89D+00  3.00D+00
                    CP:  3.00D+00  3.00D+00  2.15D+00  3.00D+00  3.00D+00
                    CP:  3.00D+00  2.62D+00  2.11D+00  2.59D+00
 E= -1090.52105083727     Delta-E=       -0.000010890001 Rises=F Damp=F
 DIIS: error= 4.24D-05 at cycle  20 NSaved=  20.
 NSaved=20 IEnMin=20 EnMin= -1090.52105083727     IErMin=20 ErrMin= 4.24D-05
 ErrMax= 4.24D-05  0.00D+00 EMaxC= 1.00D-01 BMatC= 1.59D-07 BMatP= 8.01D-07
 IDIUse=1 WtCom= 1.00D+00 WtEn= 0.00D+00
 Coeff-Com:  0.625D-04-0.102D-03-0.133D-03-0.638D-03-0.228D-03 0.274D-02
 Coeff-Com: -0.457D-03-0.339D-02 0.145D-01 0.126D+00-0.124D+00-0.167D-01
 Coeff-Com: -0.706D-01 0.245D-01 0.199D+00-0.645D-01-0.338D+00-0.246D+00
 Coeff-Com:  0.269D+00 0.123D+01
 Coeff:      0.625D-04-0.102D-03-0.133D-03-0.638D-03-0.228D-03 0.274D-02
 Coeff:     -0.457D-03-0.339D-02 0.145D-01 0.126D+00-0.124D+00-0.167D-01
 Coeff:     -0.706D-01 0.245D-01 0.199D+00-0.645D-01-0.338D+00-0.246D+00
 Coeff:      0.269D+00 0.123D+01
 Gap=     0.109 Goal=   None    Shift=    0.000
 RMSDP=3.08D-05 MaxDP=5.99D-04 DE=-1.09D-05 OVMax= 4.35D-03

 Cycle  21  Pass 0  IDiag  1:
 Restarting incremental Fock formation.
 E= -1090.52104691967     Delta-E=        0.000003917599 Rises=F Damp=F
 DIIS: error= 4.99D-05 at cycle  21 NSaved=  20.
 NSaved=20 IEnMin=19 EnMin= -1090.52105083727     IErMin=19 ErrMin= 4.24D-05
 ErrMax= 4.99D-05  0.00D+00 EMaxC= 1.00D-01 BMatC= 1.77D-07 BMatP= 1.59D-07
 IDIUse=1 WtCom= 1.00D+00 WtEn= 0.00D+00
 Coeff-Com:  0.731D-05-0.101D-03-0.188D-03-0.563D-03 0.413D-03 0.131D-02
 Coeff-Com: -0.482D-02-0.496D-02 0.696D-02 0.138D-01 0.684D-02-0.521D-01
 Coeff-Com: -0.561D-01 0.358D-01 0.198D+00 0.178D-01-0.438D+00-0.400D+00
 Coeff-Com:  0.933D+00 0.743D+00
 Coeff:      0.731D-05-0.101D-03-0.188D-03-0.563D-03 0.413D-03 0.131D-02
 Coeff:     -0.482D-02-0.496D-02 0.696D-02 0.138D-01 0.684D-02-0.521D-01
 Coeff:     -0.561D-01 0.358D-01 0.198D+00 0.178D-01-0.438D+00-0.400D+00
 Coeff:      0.933D+00 0.743D+00
 Gap=     0.109 Goal=   None    Shift=    0.000
 RMSDP=1.98D-05 MaxDP=4.03D-04 DE= 3.92D-06 OVMax= 2.88D-03

 Cycle  22  Pass 0  IDiag  1:
 RMSU=  1.98D-05    CP:  1.00D+00
 E= -1090.52104894482     Delta-E=       -0.000002025150 Rises=F Damp=F
 DIIS: error= 2.58D-05 at cycle  22 NSaved=  20.
 NSaved=20 IEnMin=18 EnMin= -1090.52105083727     IErMin=20 ErrMin= 2.58D-05
 ErrMax= 2.58D-05  0.00D+00 EMaxC= 1.00D-01 BMatC= 5.58D-08 BMatP= 1.59D-07
 IDIUse=1 WtCom= 1.00D+00 WtEn= 0.00D+00
 Coeff-Com: -0.271D-04 0.459D-04-0.538D-03-0.387D-03 0.136D-02-0.135D-02
 Coeff-Com: -0.654D-02-0.368D-01 0.481D-01 0.117D-01-0.105D-01-0.399D-01
 Coeff-Com: -0.560D-01 0.173D+00 0.117D+00-0.170D+00-0.330D+00-0.239D-01
 Coeff-Com:  0.481D+00 0.844D+00
 Coeff:     -0.271D-04 0.459D-04-0.538D-03-0.387D-03 0.136D-02-0.135D-02
 Coeff:     -0.654D-02-0.368D-01 0.481D-01 0.117D-01-0.105D-01-0.399D-01
 Coeff:     -0.560D-01 0.173D+00 0.117D+00-0.170D+00-0.330D+00-0.239D-01
 Coeff:      0.481D+00 0.844D+00
 Gap=     0.109 Goal=   None    Shift=    0.000
 RMSDP=1.29D-05 MaxDP=2.51D-04 DE=-2.03D-06 OVMax= 1.98D-03

 Cycle  23  Pass 0  IDiag  1:
 RMSU=  5.35D-06    CP:  1.00D+00  1.60D+00
 E= -1090.52104994648     Delta-E=       -0.000001001655 Rises=F Damp=F
 DIIS: error= 1.87D-05 at cycle  23 NSaved=  20.
 NSaved=20 IEnMin=17 EnMin= -1090.52105083727     IErMin=20 ErrMin= 1.87D-05
 ErrMax= 1.87D-05  0.00D+00 EMaxC= 1.00D-01 BMatC= 3.16D-08 BMatP= 5.58D-08
 IDIUse=1 WtCom= 1.00D+00 WtEn= 0.00D+00
 Coeff-Com:  0.898D-05-0.202D-03-0.121D-03 0.366D-03 0.112D-02-0.252D-03
 Coeff-Com: -0.233D-01 0.187D-01 0.298D-02 0.203D-01 0.108D-01-0.506D-01
 Coeff-Com:  0.114D-01-0.893D-02 0.153D+00 0.109D+00-0.518D+00-0.232D+00
 Coeff-Com:  0.381D+00 0.112D+01
 Coeff:      0.898D-05-0.202D-03-0.121D-03 0.366D-03 0.112D-02-0.252D-03
 Coeff:     -0.233D-01 0.187D-01 0.298D-02 0.203D-01 0.108D-01-0.506D-01
 Coeff:      0.114D-01-0.893D-02 0.153D+00 0.109D+00-0.518D+00-0.232D+00
 Coeff:      0.381D+00 0.112D+01
 Gap=     0.109 Goal=   None    Shift=    0.000
 RMSDP=1.21D-05 MaxDP=2.50D-04 DE=-1.00D-06 OVMax= 1.88D-03

 Cycle  24  Pass 0  IDiag  1:
 RMSU=  2.78D-06    CP:  1.00D+00  2.10D+00  2.19D+00
 E= -1090.52105053202     Delta-E=       -0.000000585539 Rises=F Damp=F
 DIIS: error= 1.17D-05 at cycle  24 NSaved=  20.
 NSaved=20 IEnMin=16 EnMin= -1090.52105083727     IErMin=20 ErrMin= 1.17D-05
 ErrMax= 1.17D-05  0.00D+00 EMaxC= 1.00D-01 BMatC= 1.86D-08 BMatP= 3.16D-08
 IDIUse=1 WtCom= 1.00D+00 WtEn= 0.00D+00
 Coeff-Com: -0.128D-04-0.992D-04-0.384D-03 0.171D-03 0.392D-02 0.914D-02
 Coeff-Com: -0.160D-01-0.428D-02 0.158D-01 0.128D-01-0.504D-02-0.185D-01
 Coeff-Com: -0.842D-01 0.764D-01 0.149D+00-0.920D-01-0.209D+00-0.132D+00
 Coeff-Com:  0.198D+00 0.110D+01
 Coeff:     -0.128D-04-0.992D-04-0.384D-03 0.171D-03 0.392D-02 0.914D-02
 Coeff:     -0.160D-01-0.428D-02 0.158D-01 0.128D-01-0.504D-02-0.185D-01
 Coeff:     -0.842D-01 0.764D-01 0.149D+00-0.920D-01-0.209D+00-0.132D+00
 Coeff:      0.198D+00 0.110D+01
 Gap=     0.109 Goal=   None    Shift=    0.000
 RMSDP=7.29D-06 MaxDP=1.53D-04 DE=-5.86D-07 OVMax= 1.13D-03

 Initial convergence to 1.0D-05 achieved.  Increase integral accuracy.
 Cycle  25  Pass 1  IDiag  1:
 E= -1090.52100748960     Delta-E=        0.000043042415 Rises=F Damp=F
 DIIS: error= 2.48D-05 at cycle   1 NSaved=   1.
 NSaved= 1 IEnMin= 1 EnMin= -1090.52100748960     IErMin= 1 ErrMin= 2.48D-05
 ErrMax= 2.48D-05  0.00D+00 EMaxC= 1.00D-01 BMatC= 1.13D-07 BMatP= 1.13D-07
 IDIUse=1 WtCom= 1.00D+00 WtEn= 0.00D+00
 Coeff-Com:  0.100D+01
 Coeff:      0.100D+01
 Gap=     0.109 Goal=   None    Shift=    0.000
 RMSDP=7.29D-06 MaxDP=1.53D-04 DE= 4.30D-05 OVMax= 3.95D-04

 Cycle  26  Pass 1  IDiag  1:
 RMSU=  1.20D-05    CP:  1.00D+00
 E= -1090.52100773748     Delta-E=       -0.000000247874 Rises=F Damp=F
 DIIS: error= 1.05D-05 at cycle   2 NSaved=   2.
 NSaved= 2 IEnMin= 2 EnMin= -1090.52100773748     IErMin= 2 ErrMin= 1.05D-05
 ErrMax= 1.05D-05  0.00D+00 EMaxC= 1.00D-01 BMatC= 2.31D-08 BMatP= 1.13D-07
 IDIUse=1 WtCom= 1.00D+00 WtEn= 0.00D+00
 Coeff-Com:  0.143D+00 0.857D+00
 Coeff:      0.143D+00 0.857D+00
 Gap=     0.109 Goal=   None    Shift=    0.000
 RMSDP=3.07D-06 MaxDP=1.05D-04 DE=-2.48D-07 OVMax= 3.32D-04

 Cycle  27  Pass 1  IDiag  1:
 RMSU=  2.92D-06    CP:  1.00D+00  1.08D+00
 E= -1090.52100777844     Delta-E=       -0.000000040960 Rises=F Damp=F
 DIIS: error= 1.70D-05 at cycle   3 NSaved=   3.
 NSaved= 3 IEnMin= 3 EnMin= -1090.52100777844     IErMin= 2 ErrMin= 1.05D-05
 ErrMax= 1.70D-05  0.00D+00 EMaxC= 1.00D-01 BMatC= 6.90D-08 BMatP= 2.31D-08
 IDIUse=1 WtCom= 1.00D+00 WtEn= 0.00D+00
 Coeff-Com: -0.617D-01 0.686D+00 0.376D+00
 Coeff:     -0.617D-01 0.686D+00 0.376D+00
 Gap=     0.109 Goal=   None    Shift=    0.000
 RMSDP=1.78D-06 MaxDP=4.66D-05 DE=-4.10D-08 OVMax= 1.71D-04

 Cycle  28  Pass 1  IDiag  1:
 RMSU=  1.67D-06    CP:  1.00D+00  1.13D+00  9.67D-01
 E= -1090.52100787877     Delta-E=       -0.000000100334 Rises=F Damp=F
 DIIS: error= 7.09D-06 at cycle   4 NSaved=   4.
 NSaved= 4 IEnMin= 4 EnMin= -1090.52100787877     IErMin= 4 ErrMin= 7.09D-06
 ErrMax= 7.09D-06  0.00D+00 EMaxC= 1.00D-01 BMatC= 4.77D-09 BMatP= 2.31D-08
 IDIUse=1 WtCom= 1.00D+00 WtEn= 0.00D+00
 Coeff-Com: -0.452D-01 0.359D+00 0.197D+00 0.489D+00
 Coeff:     -0.452D-01 0.359D+00 0.197D+00 0.489D+00
 Gap=     0.109 Goal=   None    Shift=    0.000
 RMSDP=1.11D-06 MaxDP=2.11D-05 DE=-1.00D-07 OVMax= 1.54D-04

 Cycle  29  Pass 1  IDiag  1:
 RMSU=  3.81D-07    CP:  1.00D+00  1.15D+00  1.24D+00  1.39D+00
 E= -1090.52100791507     Delta-E=       -0.000000036305 Rises=F Damp=F
 DIIS: error= 7.53D-06 at cycle   5 NSaved=   5.
 NSaved= 5 IEnMin= 5 EnMin= -1090.52100791507     IErMin= 4 ErrMin= 7.09D-06
 ErrMax= 7.53D-06  0.00D+00 EMaxC= 1.00D-01 BMatC= 3.40D-09 BMatP= 4.77D-09
 IDIUse=1 WtCom= 1.00D+00 WtEn= 0.00D+00
 Coeff-Com:  0.331D-01-0.458D+00-0.312D+00 0.408D+00 0.133D+01
 Coeff:      0.331D-01-0.458D+00-0.312D+00 0.408D+00 0.133D+01
 Gap=     0.109 Goal=   None    Shift=    0.000
 RMSDP=3.91D-06 MaxDP=7.70D-05 DE=-3.63D-08 OVMax= 5.66D-04

 Cycle  30  Pass 1  IDiag  1:
 RMSU=  4.28D-07    CP:  1.00D+00  1.22D+00  2.15D+00  2.98D+00  2.08D+00
 E= -1090.52100802663     Delta-E=       -0.000000111555 Rises=F Damp=F
 DIIS: error= 5.73D-06 at cycle   6 NSaved=   6.
 NSaved= 6 IEnMin= 6 EnMin= -1090.52100802663     IErMin= 6 ErrMin= 5.73D-06
 ErrMax= 5.73D-06  0.00D+00 EMaxC= 1.00D-01 BMatC= 2.49D-09 BMatP= 3.40D-09
 IDIUse=1 WtCom= 1.00D+00 WtEn= 0.00D+00
 Coeff-Com:  0.547D-01-0.568D+00-0.385D+00-0.249D-01 0.102D+01 0.902D+00
 Coeff:      0.547D-01-0.568D+00-0.385D+00-0.249D-01 0.102D+01 0.902D+00
 Gap=     0.109 Goal=   None    Shift=    0.000
 RMSDP=4.03D-06 MaxDP=7.93D-05 DE=-1.12D-07 OVMax= 5.80D-04

 Cycle  31  Pass 1  IDiag  1:
 RMSU=  2.69D-06    CP:  1.00D+00  1.29D+00  3.00D+00  3.00D+00  3.00D+00
                    CP:  1.83D+00
 E= -1090.52100811859     Delta-E=       -0.000000091958 Rises=F Damp=F
 DIIS: error= 4.98D-06 at cycle   7 NSaved=   7.
 NSaved= 7 IEnMin= 7 EnMin= -1090.52100811859     IErMin= 7 ErrMin= 4.98D-06
 ErrMax= 4.98D-06  0.00D+00 EMaxC= 1.00D-01 BMatC= 1.31D-09 BMatP= 2.49D-09
 IDIUse=1 WtCom= 1.00D+00 WtEn= 0.00D+00
 Coeff-Com: -0.372D-02 0.199D+00 0.940D-01-0.469D+00-0.935D+00 0.513D+00
 Coeff-Com:  0.160D+01
 Coeff:     -0.372D-02 0.199D+00 0.940D-01-0.469D+00-0.935D+00 0.513D+00
 Coeff:      0.160D+01
 Gap=     0.109 Goal=   None    Shift=    0.000
 RMSDP=6.85D-06 MaxDP=1.35D-04 DE=-9.20D-08 OVMax= 9.89D-04

 Cycle  32  Pass 1  IDiag  1:
 RMSU=  4.17D-06    CP:  1.00D+00  1.41D+00  3.00D+00  3.00D+00  3.00D+00
                    CP:  3.00D+00  2.93D+00
 E= -1090.52100822126     Delta-E=       -0.000000102677 Rises=F Damp=F
 DIIS: error= 2.66D-06 at cycle   8 NSaved=   8.
 NSaved= 8 IEnMin= 8 EnMin= -1090.52100822126     IErMin= 8 ErrMin= 2.66D-06
 ErrMax= 2.66D-06  0.00D+00 EMaxC= 1.00D-01 BMatC= 9.15D-10 BMatP= 1.31D-09
 IDIUse=1 WtCom= 1.00D+00 WtEn= 0.00D+00
 Coeff-Com: -0.206D-01 0.334D+00 0.195D+00-0.306D+00-0.106D+01 0.189D-01
 Coeff-Com:  0.120D+01 0.641D+00
 Coeff:     -0.206D-01 0.334D+00 0.195D+00-0.306D+00-0.106D+01 0.189D-01
 Coeff:      0.120D+01 0.641D+00
 Gap=     0.109 Goal=   None    Shift=    0.000
 RMSDP=3.14D-06 MaxDP=6.17D-05 DE=-1.03D-07 OVMax= 4.47D-04

 Cycle  33  Pass 1  IDiag  1:
 RMSU=  2.22D-06    CP:  1.00D+00  1.46D+00  3.00D+00  3.00D+00  3.00D+00
                    CP:  3.00D+00  3.00D+00  1.45D+00
 E= -1090.52100824771     Delta-E=       -0.000000026448 Rises=F Damp=F
 DIIS: error= 1.96D-06 at cycle   9 NSaved=   9.
 NSaved= 9 IEnMin= 9 EnMin= -1090.52100824771     IErMin= 9 ErrMin= 1.96D-06
 ErrMax= 1.96D-06  0.00D+00 EMaxC= 1.00D-01 BMatC= 3.79D-10 BMatP= 9.15D-10
 IDIUse=1 WtCom= 1.00D+00 WtEn= 0.00D+00
 Coeff-Com: -0.110D-01 0.110D+00 0.859D-01 0.775D-01-0.240D+00-0.272D+00
 Coeff-Com:  0.209D-01 0.381D+00 0.847D+00
 Coeff:     -0.110D-01 0.110D+00 0.859D-01 0.775D-01-0.240D+00-0.272D+00
 Coeff:      0.209D-01 0.381D+00 0.847D+00
 Gap=     0.109 Goal=   None    Shift=    0.000
 RMSDP=1.57D-06 MaxDP=2.98D-05 DE=-2.64D-08 OVMax= 2.16D-04

 Cycle  34  Pass 1  IDiag  1:
 RMSU=  3.22D-07    CP:  1.00D+00  1.49D+00  3.00D+00  3.00D+00  3.00D+00
                    CP:  3.00D+00  3.00D+00  1.68D+00  1.54D+00
 E= -1090.52100825790     Delta-E=       -0.000000010184 Rises=F Damp=F
 DIIS: error= 1.79D-06 at cycle  10 NSaved=  10.
 NSaved=10 IEnMin=10 EnMin= -1090.52100825790     IErMin=10 ErrMin= 1.79D-06
 ErrMax= 1.79D-06  0.00D+00 EMaxC= 1.00D-01 BMatC= 2.39D-10 BMatP= 3.79D-10
 IDIUse=1 WtCom= 1.00D+00 WtEn= 0.00D+00
 Coeff-Com:  0.942D-02-0.198D+00-0.834D-01 0.331D+00 0.647D+00-0.234D+00
 Coeff-Com: -0.906D+00-0.246D+00 0.556D+00 0.112D+01
 Coeff:      0.942D-02-0.198D+00-0.834D-01 0.331D+00 0.647D+00-0.234D+00
 Coeff:     -0.906D+00-0.246D+00 0.556D+00 0.112D+01
 Gap=     0.109 Goal=   None    Shift=    0.000
 RMSDP=1.54D-06 MaxDP=2.63D-05 DE=-1.02D-08 OVMax= 1.93D-04

 Cycle  35  Pass 1  IDiag  1:
 RMSU=  2.33D-07    CP:  1.00D+00  1.51D+00  3.00D+00  3.00D+00  3.00D+00
                    CP:  3.00D+00  3.00D+00  1.88D+00  2.03D+00  2.72D+00
 E= -1090.52100826625     Delta-E=       -0.000000008349 Rises=F Damp=F
 DIIS: error= 1.10D-06 at cycle  11 NSaved=  11.
 NSaved=11 IEnMin=11 EnMin= -1090.52100826625     IErMin=11 ErrMin= 1.10D-06
 ErrMax= 1.10D-06  0.00D+00 EMaxC= 1.00D-01 BMatC= 1.25D-10 BMatP= 2.39D-10
 IDIUse=1 WtCom= 1.00D+00 WtEn= 0.00D+00
 Coeff-Com:  0.102D-01-0.158D+00-0.802D-01 0.159D+00 0.433D+00-0.260D-01
 Coeff-Com: -0.441D+00-0.279D+00-0.137D+00 0.537D+00 0.982D+00
 Coeff:      0.102D-01-0.158D+00-0.802D-01 0.159D+00 0.433D+00-0.260D-01
 Coeff:     -0.441D+00-0.279D+00-0.137D+00 0.537D+00 0.982D+00
 Gap=     0.109 Goal=   None    Shift=    0.000
 RMSDP=8.27D-07 MaxDP=1.43D-05 DE=-8.35D-09 OVMax= 8.38D-05

 Cycle  36  Pass 1  IDiag  1:
 RMSU=  4.26D-07    CP:  1.00D+00  1.52D+00  3.00D+00  3.00D+00  3.00D+00
                    CP:  3.00D+00  3.00D+00  1.96D+00  2.26D+00  3.00D+00
                    CP:  1.77D+00
 E= -1090.52100827014     Delta-E=       -0.000000003897 Rises=F Damp=F
 DIIS: error= 1.07D-06 at cycle  12 NSaved=  12.
 NSaved=12 IEnMin=12 EnMin= -1090.52100827014     IErMin=12 ErrMin= 1.07D-06
 ErrMax= 1.07D-06  0.00D+00 EMaxC= 1.00D-01 BMatC= 9.25D-11 BMatP= 1.25D-10
 IDIUse=1 WtCom= 1.00D+00 WtEn= 0.00D+00
 Coeff-Com:  0.664D-03 0.229D-01 0.542D-02-0.114D+00-0.148D+00 0.116D+00
 Coeff-Com:  0.358D+00-0.479D-01-0.509D+00-0.425D+00 0.830D+00 0.912D+00
 Coeff:      0.664D-03 0.229D-01 0.542D-02-0.114D+00-0.148D+00 0.116D+00
 Coeff:      0.358D+00-0.479D-01-0.509D+00-0.425D+00 0.830D+00 0.912D+00
 Gap=     0.109 Goal=   None    Shift=    0.000
 RMSDP=8.78D-07 MaxDP=1.59D-05 DE=-3.90D-09 OVMax= 8.36D-05

 Cycle  37  Pass 1  IDiag  1:
 RMSU=  1.21D-07    CP:  1.00D+00  1.53D+00  3.00D+00  3.00D+00  3.00D+00
                    CP:  3.00D+00  3.00D+00  2.06D+00  2.49D+00  3.00D+00
                    CP:  2.77D+00  2.24D+00
 E= -1090.52100827319     Delta-E=       -0.000000003047 Rises=F Damp=F
 DIIS: error= 5.92D-07 at cycle  13 NSaved=  13.
 NSaved=13 IEnMin=13 EnMin= -1090.52100827319     IErMin=13 ErrMin= 5.92D-07
 ErrMax= 5.92D-07  0.00D+00 EMaxC= 1.00D-01 BMatC= 5.29D-11 BMatP= 9.25D-11
 IDIUse=1 WtCom= 1.00D+00 WtEn= 0.00D+00
 Coeff-Com: -0.449D-02 0.886D-01 0.462D-01-0.144D+00-0.294D+00 0.497D-01
 Coeff-Com:  0.459D+00 0.911D-01-0.187D+00-0.569D+00 0.375D-01 0.545D+00
 Coeff-Com:  0.882D+00
 Coeff:     -0.449D-02 0.886D-01 0.462D-01-0.144D+00-0.294D+00 0.497D-01
 Coeff:      0.459D+00 0.911D-01-0.187D+00-0.569D+00 0.375D-01 0.545D+00
 Coeff:      0.882D+00
 Gap=     0.109 Goal=   None    Shift=    0.000
 RMSDP=5.39D-07 MaxDP=1.09D-05 DE=-3.05D-09 OVMax= 4.47D-05

 Cycle  38  Pass 1  IDiag  1:
 RMSU=  1.55D-07    CP:  1.00D+00  1.53D+00  3.00D+00  3.00D+00  3.00D+00
                    CP:  3.00D+00  3.00D+00  2.10D+00  2.61D+00  3.00D+00
                    CP:  3.00D+00  3.00D+00  1.68D+00
 E= -1090.52100827469     Delta-E=       -0.000000001499 Rises=F Damp=F
 DIIS: error= 5.32D-07 at cycle  14 NSaved=  14.
 NSaved=14 IEnMin=14 EnMin= -1090.52100827469     IErMin=14 ErrMin= 5.32D-07
 ErrMax= 5.32D-07  0.00D+00 EMaxC= 1.00D-01 BMatC= 2.81D-11 BMatP= 5.29D-11
 IDIUse=1 WtCom= 1.00D+00 WtEn= 0.00D+00
 Coeff-Com: -0.362D-02 0.435D-01 0.304D-01-0.115D-01-0.870D-01-0.680D-01
 Coeff-Com:  0.874D-01 0.655D-01 0.256D+00-0.115D+00-0.543D+00-0.299D+00
 Coeff-Com:  0.434D+00 0.121D+01
 Coeff:     -0.362D-02 0.435D-01 0.304D-01-0.115D-01-0.870D-01-0.680D-01
 Coeff:      0.874D-01 0.655D-01 0.256D+00-0.115D+00-0.543D+00-0.299D+00
 Coeff:      0.434D+00 0.121D+01
 Gap=     0.109 Goal=   None    Shift=    0.000
 RMSDP=5.37D-07 MaxDP=1.18D-05 DE=-1.50D-09 OVMax= 5.54D-05

 Cycle  39  Pass 1  IDiag  1:
 RMSU=  3.57D-07    CP:  1.00D+00  1.53D+00  3.00D+00  3.00D+00  3.00D+00
                    CP:  3.00D+00  3.00D+00  2.12D+00  2.66D+00  3.00D+00
                    CP:  3.00D+00  3.00D+00  2.77D+00  3.00D+00
 E= -1090.52100827594     Delta-E=       -0.000000001251 Rises=F Damp=F
 DIIS: error= 4.53D-07 at cycle  15 NSaved=  15.
 NSaved=15 IEnMin=15 EnMin= -1090.52100827594     IErMin=15 ErrMin= 4.53D-07
 ErrMax= 4.53D-07  0.00D+00 EMaxC= 1.00D-01 BMatC= 1.88D-11 BMatP= 2.81D-11
 IDIUse=1 WtCom= 1.00D+00 WtEn= 0.00D+00
 Coeff-Com: -0.395D-04-0.175D-01-0.430D-02 0.679D-01 0.845D-01-0.783D-01
 Coeff-Com: -0.157D+00-0.185D-01 0.239D+00 0.220D+00-0.288D+00-0.398D+00
 Coeff-Com: -0.283D+00 0.751D+00 0.883D+00
 Coeff:     -0.395D-04-0.175D-01-0.430D-02 0.679D-01 0.845D-01-0.783D-01
 Coeff:     -0.157D+00-0.185D-01 0.239D+00 0.220D+00-0.288D+00-0.398D+00
 Coeff:     -0.283D+00 0.751D+00 0.883D+00
 Gap=     0.109 Goal=   None    Shift=    0.000
 RMSDP=3.32D-07 MaxDP=7.13D-06 DE=-1.25D-09 OVMax= 3.31D-05

 Cycle  40  Pass 1  IDiag  1:
 RMSU=  2.05D-07    CP:  1.00D+00  1.54D+00  3.00D+00  3.00D+00  3.00D+00
                    CP:  3.00D+00  3.00D+00  2.14D+00  2.72D+00  3.00D+00
                    CP:  3.00D+00  3.00D+00  3.00D+00  3.00D+00  1.52D+00
 E= -1090.52100827650     Delta-E=       -0.000000000558 Rises=F Damp=F
 DIIS: error= 3.46D-07 at cycle  16 NSaved=  16.
 NSaved=16 IEnMin=16 EnMin= -1090.52100827650     IErMin=16 ErrMin= 3.46D-07
 ErrMax= 3.46D-07  0.00D+00 EMaxC= 1.00D-01 BMatC= 1.13D-11 BMatP= 1.88D-11
 IDIUse=1 WtCom= 1.00D+00 WtEn= 0.00D+00
 Coeff-Com:  0.257D-02-0.435D-01-0.253D-01 0.638D-01 0.118D+00-0.114D-01
 Coeff-Com: -0.166D+00-0.679D-01-0.591D-02 0.240D+00 0.144D+00-0.801D-01
 Coeff-Com: -0.611D+00-0.145D+00 0.664D+00 0.925D+00
 Coeff:      0.257D-02-0.435D-01-0.253D-01 0.638D-01 0.118D+00-0.114D-01
 Coeff:     -0.166D+00-0.679D-01-0.591D-02 0.240D+00 0.144D+00-0.801D-01
 Coeff:     -0.611D+00-0.145D+00 0.664D+00 0.925D+00
 Gap=     0.109 Goal=   None    Shift=    0.000
 RMSDP=3.51D-07 MaxDP=7.84D-06 DE=-5.58D-10 OVMax= 3.69D-05

 Cycle  41  Pass 1  IDiag  1:
 RMSU=  4.38D-08    CP:  1.00D+00  1.54D+00  3.00D+00  3.00D+00  3.00D+00
                    CP:  3.00D+00  3.00D+00  2.16D+00  2.77D+00  3.00D+00
                    CP:  3.00D+00  3.00D+00  3.00D+00  3.00D+00  2.13D+00
                    CP:  2.15D+00
 E= -1090.52100827695     Delta-E=       -0.000000000455 Rises=F Damp=F
 DIIS: error= 2.87D-07 at cycle  17 NSaved=  17.
 NSaved=17 IEnMin=17 EnMin= -1090.52100827695     IErMin=17 ErrMin= 2.87D-07
 ErrMax= 2.87D-07  0.00D+00 EMaxC= 1.00D-01 BMatC= 5.76D-12 BMatP= 1.13D-11
 IDIUse=1 WtCom= 1.00D+00 WtEn= 0.00D+00
 Coeff-Com:  0.770D-03-0.476D-02-0.501D-02-0.679D-02-0.175D-01 0.404D-01
 Coeff-Com:  0.251D-01-0.107D-01-0.116D+00-0.408D-01 0.173D+00 0.228D+00
 Coeff-Com: -0.108D+00-0.388D+00-0.310D+00 0.301D+00 0.124D+01
 Coeff:      0.770D-03-0.476D-02-0.501D-02-0.679D-02-0.175D-01 0.404D-01
 Coeff:      0.251D-01-0.107D-01-0.116D+00-0.408D-01 0.173D+00 0.228D+00
 Coeff:     -0.108D+00-0.388D+00-0.310D+00 0.301D+00 0.124D+01
 Gap=     0.109 Goal=   None    Shift=    0.000
 RMSDP=2.68D-07 MaxDP=5.93D-06 DE=-4.55D-10 OVMax= 2.72D-05

 Cycle  42  Pass 1  IDiag  1:
 RMSU=  5.08D-08    CP:  1.00D+00  1.54D+00  3.00D+00  3.00D+00  3.00D+00
                    CP:  3.00D+00  3.00D+00  2.17D+00  2.81D+00  3.00D+00
                    CP:  3.00D+00  3.00D+00  3.00D+00  3.00D+00  2.53D+00
                    CP:  3.00D+00  2.17D+00
 E= -1090.52100827722     Delta-E=       -0.000000000271 Rises=F Damp=F
 DIIS: error= 2.13D-07 at cycle  18 NSaved=  18.
 NSaved=18 IEnMin=18 EnMin= -1090.52100827722     IErMin=18 ErrMin= 2.13D-07
 ErrMax= 2.13D-07  0.00D+00 EMaxC= 1.00D-01 BMatC= 3.77D-12 BMatP= 5.76D-12
 IDIUse=1 WtCom= 1.00D+00 WtEn= 0.00D+00
 Coeff-Com: -0.985D-03 0.191D-01 0.117D-01-0.271D-01-0.750D-01 0.249D-01
 Coeff-Com:  0.885D-01 0.365D-01-0.352D-01-0.141D+00-0.319D-01 0.167D+00
 Coeff-Com:  0.231D+00-0.388D-01-0.409D+00-0.421D+00 0.440D+00 0.116D+01
 Coeff:     -0.985D-03 0.191D-01 0.117D-01-0.271D-01-0.750D-01 0.249D-01
 Coeff:      0.885D-01 0.365D-01-0.352D-01-0.141D+00-0.319D-01 0.167D+00
 Coeff:      0.231D+00-0.388D-01-0.409D+00-0.421D+00 0.440D+00 0.116D+01
 Gap=     0.109 Goal=   None    Shift=    0.000
 RMSDP=1.65D-07 MaxDP=3.38D-06 DE=-2.71D-10 OVMax= 1.48D-05

 Cycle  43  Pass 1  IDiag  1:
 RMSU=  9.55D-08    CP:  1.00D+00  1.54D+00  3.00D+00  3.00D+00  3.00D+00
                    CP:  3.00D+00  3.00D+00  2.18D+00  2.82D+00  3.00D+00
                    CP:  3.00D+00  3.00D+00  3.00D+00  3.00D+00  2.74D+00
                    CP:  3.00D+00  3.00D+00  2.95D+00
 E= -1090.52100827736     Delta-E=       -0.000000000136 Rises=F Damp=F
 DIIS: error= 2.03D-07 at cycle  19 NSaved=  19.
 NSaved=19 IEnMin=19 EnMin= -1090.52100827736     IErMin=19 ErrMin= 2.03D-07
 ErrMax= 2.03D-07  0.00D+00 EMaxC= 1.00D-01 BMatC= 3.28D-12 BMatP= 3.77D-12
 IDIUse=1 WtCom= 1.00D+00 WtEn= 0.00D+00
 Coeff-Com: -0.137D-02 0.178D-01 0.143D-01-0.827D-02-0.520D-01-0.132D-01
 Coeff-Com:  0.371D-01 0.458D-01 0.766D-01-0.707D-01-0.211D+00-0.361D-01
 Coeff-Com:  0.257D+00 0.329D+00-0.395D-01-0.687D+00-0.626D+00 0.105D+01
 Coeff-Com:  0.915D+00
 Coeff:     -0.137D-02 0.178D-01 0.143D-01-0.827D-02-0.520D-01-0.132D-01
 Coeff:      0.371D-01 0.458D-01 0.766D-01-0.707D-01-0.211D+00-0.361D-01
 Coeff:      0.257D+00 0.329D+00-0.395D-01-0.687D+00-0.626D+00 0.105D+01
 Coeff:      0.915D+00
 Gap=     0.109 Goal=   None    Shift=    0.000
 RMSDP=2.02D-07 MaxDP=4.12D-06 DE=-1.36D-10 OVMax= 2.04D-05

 Cycle  44  Pass 1  IDiag  1:
 RMSU=  1.15D-07    CP:  1.00D+00  1.54D+00  3.00D+00  3.00D+00  3.00D+00
                    CP:  3.00D+00  3.00D+00  2.19D+00  2.85D+00  3.00D+00
                    CP:  3.00D+00  3.00D+00  3.00D+00  3.00D+00  2.96D+00
                    CP:  3.00D+00  3.00D+00  3.00D+00  2.05D+00
 E= -1090.52100827747     Delta-E=       -0.000000000110 Rises=F Damp=F
 DIIS: error= 1.33D-07 at cycle  20 NSaved=  20.
 NSaved=20 IEnMin=20 EnMin= -1090.52100827747     IErMin=20 ErrMin= 1.33D-07
 ErrMax= 1.33D-07  0.00D+00 EMaxC= 1.00D-01 BMatC= 1.49D-12 BMatP= 3.28D-12
 IDIUse=1 WtCom= 1.00D+00 WtEn= 0.00D+00
 Coeff-Com:  0.107D-03-0.553D-02-0.134D-02 0.195D-01 0.176D-01-0.142D-01
 Coeff-Com: -0.426D-01 0.857D-02 0.389D-01 0.655D-01-0.827D-01-0.856D-01
 Coeff-Com: -0.599D-01 0.159D+00 0.287D+00-0.111D+00-0.523D+00-0.346D+00
 Coeff-Com:  0.370D+00 0.131D+01
 Coeff:      0.107D-03-0.553D-02-0.134D-02 0.195D-01 0.176D-01-0.142D-01
 Coeff:     -0.426D-01 0.857D-02 0.389D-01 0.655D-01-0.827D-01-0.856D-01
 Coeff:     -0.599D-01 0.159D+00 0.287D+00-0.111D+00-0.523D+00-0.346D+00
 Coeff:      0.370D+00 0.131D+01
 Gap=     0.109 Goal=   None    Shift=    0.000
 RMSDP=1.67D-07 MaxDP=3.09D-06 DE=-1.10D-10 OVMax= 1.41D-05

 Cycle  45  Pass 1  IDiag  1:
 Restarting incremental Fock formation.
 E= -1090.52100827753     Delta-E=       -0.000000000062 Rises=F Damp=F
 DIIS: error= 8.91D-08 at cycle  21 NSaved=  20.
 NSaved=20 IEnMin=20 EnMin= -1090.52100827753     IErMin=20 ErrMin= 8.91D-08
 ErrMax= 8.91D-08  0.00D+00 EMaxC= 1.00D-01 BMatC= 6.68D-13 BMatP= 1.49D-12
 IDIUse=1 WtCom= 1.00D+00 WtEn= 0.00D+00
 Coeff-Com: -0.510D-02-0.299D-02 0.140D-01 0.157D-01-0.501D-02-0.310D-01
 Coeff-Com: -0.465D-02-0.104D-01 0.622D-01 0.200D-01-0.283D-01-0.142D+00
 Coeff-Com: -0.222D-01 0.186D+00 0.205D+00 0.230D-01-0.657D+00-0.254D+00
 Coeff-Com:  0.739D+00 0.897D+00
 Coeff:     -0.510D-02-0.299D-02 0.140D-01 0.157D-01-0.501D-02-0.310D-01
 Coeff:     -0.465D-02-0.104D-01 0.622D-01 0.200D-01-0.283D-01-0.142D+00
 Coeff:     -0.222D-01 0.186D+00 0.205D+00 0.230D-01-0.657D+00-0.254D+00
 Coeff:      0.739D+00 0.897D+00
 Gap=     0.109 Goal=   None    Shift=    0.000
 RMSDP=8.57D-08 MaxDP=1.61D-06 DE=-6.18D-11 OVMax= 8.47D-06

 Cycle  46  Pass 1  IDiag  1:
 RMSU=  8.57D-08    CP:  1.00D+00
 E= -1090.52100827755     Delta-E=       -0.000000000016 Rises=F Damp=F
 DIIS: error= 4.65D-08 at cycle  22 NSaved=  20.
 NSaved=20 IEnMin=20 EnMin= -1090.52100827755     IErMin=20 ErrMin= 4.65D-08
 ErrMax= 4.65D-08  0.00D+00 EMaxC= 1.00D-01 BMatC= 1.76D-13 BMatP= 6.68D-13
 IDIUse=1 WtCom= 1.00D+00 WtEn= 0.00D+00
 Coeff-Com: -0.198D-03-0.101D-02-0.252D-02 0.298D-02 0.648D-02-0.225D-02
 Coeff-Com: -0.207D-01 0.158D-02 0.263D-01 0.281D-01-0.298D-01-0.502D-01
 Coeff-Com: -0.472D-01 0.706D-01 0.206D+00-0.957D-01-0.199D+00-0.173D+00
 Coeff-Com:  0.193D+00 0.109D+01
 Coeff:     -0.198D-03-0.101D-02-0.252D-02 0.298D-02 0.648D-02-0.225D-02
 Coeff:     -0.207D-01 0.158D-02 0.263D-01 0.281D-01-0.298D-01-0.502D-01
 Coeff:     -0.472D-01 0.706D-01 0.206D+00-0.957D-01-0.199D+00-0.173D+00
 Coeff:      0.193D+00 0.109D+01
 Gap=     0.109 Goal=   None    Shift=    0.000
 RMSDP=4.63D-08 MaxDP=8.02D-07 DE=-1.59D-11 OVMax= 3.78D-06

 Cycle  47  Pass 1  IDiag  1:
 RMSU=  1.99D-08    CP:  1.00D+00  1.49D+00
 E= -1090.52100827756     Delta-E=       -0.000000000008 Rises=F Damp=F
 DIIS: error= 2.66D-08 at cycle  23 NSaved=  20.
 NSaved=20 IEnMin=20 EnMin= -1090.52100827756     IErMin=20 ErrMin= 2.66D-08
 ErrMax= 2.66D-08  0.00D+00 EMaxC= 1.00D-01 BMatC= 1.38D-13 BMatP= 1.76D-13
 IDIUse=1 WtCom= 1.00D+00 WtEn= 0.00D+00
 Coeff-Com: -0.320D-02-0.293D-02 0.330D-02 0.103D-01-0.185D-02-0.165D-01
 Coeff-Com: -0.121D-01 0.220D-01 0.355D-01 0.820D-02-0.447D-01-0.914D-01
 Coeff-Com:  0.481D-02 0.171D+00 0.117D+00-0.636D-01-0.375D+00-0.221D+00
 Coeff-Com:  0.819D+00 0.641D+00
 Coeff:     -0.320D-02-0.293D-02 0.330D-02 0.103D-01-0.185D-02-0.165D-01
 Coeff:     -0.121D-01 0.220D-01 0.355D-01 0.820D-02-0.447D-01-0.914D-01
 Coeff:      0.481D-02 0.171D+00 0.117D+00-0.636D-01-0.375D+00-0.221D+00
 Coeff:      0.819D+00 0.641D+00
 Gap=     0.109 Goal=   None    Shift=    0.000
 RMSDP=1.89D-08 MaxDP=2.91D-07 DE=-7.73D-12 OVMax= 1.52D-06

 Cycle  48  Pass 1  IDiag  1:
 RMSU=  5.57D-09    CP:  1.00D+00  1.68D+00  1.40D+00
 E= -1090.52100827755     Delta-E=        0.000000000006 Rises=F Damp=F
 DIIS: error= 1.78D-08 at cycle  24 NSaved=  20.
 NSaved=20 IEnMin=19 EnMin= -1090.52100827756     IErMin=20 ErrMin= 1.78D-08
 ErrMax= 1.78D-08  0.00D+00 EMaxC= 1.00D-01 BMatC= 3.36D-14 BMatP= 1.38D-13
 IDIUse=1 WtCom= 1.00D+00 WtEn= 0.00D+00
 Coeff-Com: -0.300D-04-0.268D-03 0.960D-03 0.140D-03-0.421D-02 0.154D-03
 Coeff-Com:  0.380D-02 0.561D-02-0.301D-02-0.721D-02-0.832D-02 0.420D-02
 Coeff-Com:  0.269D-01 0.136D-01 0.224D-01-0.652D-01-0.137D+00-0.171D-01
 Coeff-Com:  0.262D+00 0.903D+00
 Coeff:     -0.300D-04-0.268D-03 0.960D-03 0.140D-03-0.421D-02 0.154D-03
 Coeff:      0.380D-02 0.561D-02-0.301D-02-0.721D-02-0.832D-02 0.420D-02
 Coeff:      0.269D-01 0.136D-01 0.224D-01-0.652D-01-0.137D+00-0.171D-01
 Coeff:      0.262D+00 0.903D+00
 Gap=     0.109 Goal=   None    Shift=    0.000
 RMSDP=8.85D-09 MaxDP=1.45D-07 DE= 6.37D-12 OVMax= 7.75D-07

 SCF Done:  E(RwB97XD) =  -1090.52100828     A.U. after   48 cycles
            NFock= 48  Conv=0.89D-08     -V/T= 2.0059
 KE= 1.084159596339D+03 PE=-5.424646390179D+03 EE= 1.803121111730D+03
 Leave Link  502 at Wed Jan 12 16:47:15 2022, MaxMem=   402653184 cpu:            2719.7 elap:             487.0
 (Enter /work/01114/jfonner/frontera/gaussian/16rC.01/g16/l601.exe)
 Copying SCF densities to generalized density rwf, IOpCl= 0 IROHF=0.

 **********************************************************************

            Population analysis using the SCF Density.

 **********************************************************************

 Orbital symmetries:
       Occupied  (A) (A) (A) (A) (A) (A) (A) (A) (A) (A) (A) (A)
                 (A) (A) (A) (A) (A) (A) (A) (A) (A) (A) (A) (A)
                 (A) (A) (A) (A) (A) (A) (A) (A) (A) (A) (A) (A)
                 (A) (A) (A) (A) (A) (A) (A) (A) (A) (A) (A) (A)
                 (A) (A) (A) (A) (A) (A) (A) (A) (A) (A) (A) (A)
                 (A) (A) (A) (A) (A) (A) (A) (A) (A) (A) (A) (A)
                 (A)
       Virtual   (A) (A) (A) (A) (A) (A) (A) (A) (A) (A) (A) (A)
                 (A) (A) (A) (A) (A) (A) (A) (A) (A) (A) (A) (A)
                 (A) (A) (A) (A) (A) (A) (A) (A) (A) (A) (A) (A)
                 (A) (A) (A) (A) (A) (A) (A) (A) (A) (A) (A) (A)
                 (A) (A) (A) (A) (A) (A) (A) (A) (A) (A) (A) (A)
                 (A) (A) (A) (A) (A) (A) (A) (A) (A) (A) (A) (A)
                 (A) (A) (A) (A) (A) (A) (A) (A) (A) (A) (A) (A)
                 (A) (A) (A) (A) (A) (A) (A) (A) (A) (A) (A) (A)
                 (A) (A) (A) (A) (A) (A) (A) (A) (A) (A) (A) (A)
                 (A) (A) (A) (A) (A) (A) (A) (A) (A) (A) (A) (A)
                 (A) (A) (A) (A) (A) (A)
 The electronic state is 1-A.
 Alpha  occ. eigenvalues --  -19.53179 -19.47276 -19.46519 -19.43364 -19.41466
 Alpha  occ. eigenvalues --  -19.39973 -14.68823 -14.66233 -14.66139 -14.64999
 Alpha  occ. eigenvalues --  -10.69938 -10.62390 -10.62222 -10.61524 -10.60236
 Alpha  occ. eigenvalues --  -10.60050 -10.59361 -10.58718 -10.57718 -10.56560
 Alpha  occ. eigenvalues --  -10.54277  -1.40179  -1.35888  -1.32815  -1.31466
 Alpha  occ. eigenvalues --   -1.31231  -1.24976  -1.21650  -1.19772  -1.18194
 Alpha  occ. eigenvalues --   -1.16487  -1.11297  -1.04809  -1.02860  -0.99846
 Alpha  occ. eigenvalues --   -0.96150  -0.89955  -0.86918  -0.85315  -0.81178
 Alpha  occ. eigenvalues --   -0.79423  -0.77152  -0.76145  -0.73901  -0.73067
 Alpha  occ. eigenvalues --   -0.72935  -0.72391  -0.71980  -0.70899  -0.69436
 Alpha  occ. eigenvalues --   -0.68601  -0.68298  -0.66952  -0.66227  -0.65482
 Alpha  occ. eigenvalues --   -0.64425  -0.63763  -0.63676  -0.61936  -0.60934
 Alpha  occ. eigenvalues --   -0.60439  -0.58320  -0.57047  -0.56790  -0.54045
 Alpha  occ. eigenvalues --   -0.52858  -0.51352  -0.50992  -0.50419  -0.48708
 Alpha  occ. eigenvalues --   -0.48077  -0.47861  -0.45939
 Alpha virt. eigenvalues --   -0.35032  -0.28441  -0.27167  -0.25964  -0.23759
 Alpha virt. eigenvalues --   -0.21866  -0.18371  -0.17309  -0.09478  -0.07223
 Alpha virt. eigenvalues --   -0.05795  -0.03479   0.05804   0.06621   0.07052
 Alpha virt. eigenvalues --    0.07367   0.09275   0.09837   0.10326   0.11572
 Alpha virt. eigenvalues --    0.11817   0.12913   0.13954   0.13980   0.15091
 Alpha virt. eigenvalues --    0.15918   0.16561   0.17393   0.18316   0.22777
 Alpha virt. eigenvalues --    0.23741   0.24156   0.25174   0.30089   0.32143
 Alpha virt. eigenvalues --    0.33774   0.34173   0.40041   0.41356   0.42500
 Alpha virt. eigenvalues --    0.43491   0.45447   0.45868   0.46006   0.46526
 Alpha virt. eigenvalues --    0.46765   0.47229   0.47454   0.48303   0.48901
 Alpha virt. eigenvalues --    0.49136   0.49884   0.50438   0.51627   0.52222
 Alpha virt. eigenvalues --    0.52684   0.54400   0.56888   0.57951   0.58529
 Alpha virt. eigenvalues --    0.59114   0.60814   0.61020   0.62661   0.63484
 Alpha virt. eigenvalues --    0.63948   0.64931   0.67235   0.67719   0.69205
 Alpha virt. eigenvalues --    0.70096   0.71891   0.73007   0.74185   0.76958
 Alpha virt. eigenvalues --    0.77282   0.78519   0.80376   0.80870   0.82633
 Alpha virt. eigenvalues --    0.83341   0.84825   0.84932   0.85982   0.86963
 Alpha virt. eigenvalues --    0.88030   0.88183   0.88822   0.89547   0.90012
 Alpha virt. eigenvalues --    0.90218   0.91168   0.93172   0.94439   0.94611
 Alpha virt. eigenvalues --    0.95958   0.97917   0.98203   0.99431   1.00079
 Alpha virt. eigenvalues --    1.01439   1.03090   1.03669   1.07154   1.08254
 Alpha virt. eigenvalues --    1.10676   1.11292   1.12541   1.14448   1.17564
 Alpha virt. eigenvalues --    1.18632   1.21377   1.25724   1.29274   1.35778
 Alpha virt. eigenvalues --    1.42994   1.46053   1.47876   1.53908   1.62012
 Alpha virt. eigenvalues --    1.64146   1.66778   1.74633   1.81880   1.89223
 Alpha virt. eigenvalues --    1.91354
          Condensed to atoms (all electrons):
               1          2          3          4          5          6
     1  C    4.779043   0.454822   0.082001  -0.037024   0.004715   0.000533
     2  O    0.454822   8.055788  -0.106470   0.001846  -0.000857  -0.000007
     3  N    0.082001  -0.106470   7.295964   0.267002  -0.063121  -0.010991
     4  C   -0.037024   0.001846   0.267002   5.668040   0.066799  -0.109269
     5  C    0.004715  -0.000857  -0.063121   0.066799   5.041474   0.506211
     6  O    0.000533  -0.000007  -0.010991  -0.109269   0.506211   7.997924
     7  N    0.000512   0.000024   0.000589  -0.145540   0.078125  -0.138853
     8  C    0.000007   0.000006  -0.000459   0.007222  -0.033207  -0.000842
     9  C    0.001533   0.000359  -0.071495   0.218928  -0.046784   0.004808
    10  O    0.003702  -0.000046   0.000483  -0.056292   0.003585  -0.000015
    11  C    0.000000  -0.000000  -0.000002  -0.000252   0.003838  -0.000333
    12  O   -0.000000  -0.000000   0.000000   0.000003   0.000073  -0.000005
    13  N   -0.000000  -0.000000   0.000000  -0.000022  -0.000441  -0.000036
    14  C    0.000000  -0.000000  -0.000000  -0.000000  -0.000011   0.000000
    15  C   -0.000000  -0.000000   0.000000  -0.000000  -0.000000  -0.000000
    16  O   -0.000000   0.000000  -0.000000   0.000000  -0.000000  -0.000000
    17  N    0.000000   0.000000  -0.000000   0.000000   0.000000   0.000000
    18  C   -0.000000   0.000000   0.000000  -0.000000  -0.000000  -0.000000
    19  C   -0.000002  -0.000001   0.000048  -0.000524  -0.000913  -0.000432
    20  O   -0.000001  -0.000002   0.000009  -0.000150   0.004805   0.000416
    21  C   -0.000000  -0.000000   0.000000  -0.000003  -0.000210  -0.000110
    22  H    0.398256  -0.058166  -0.113343   0.008158  -0.000182   0.000008
    23  H    0.000058  -0.000035   0.004164  -0.084351   0.009635  -0.000197
    24  H    0.000000   0.000000   0.000000   0.000000   0.000002   0.000000
    25  H    0.000000   0.000000  -0.000000   0.000000   0.000000   0.000000
    26  H    0.000000   0.000000  -0.000000   0.000000   0.000000   0.000000
               7          8          9         10         11         12
     1  C    0.000512   0.000007   0.001533   0.003702   0.000000  -0.000000
     2  O    0.000024   0.000006   0.000359  -0.000046  -0.000000  -0.000000
     3  N    0.000589  -0.000459  -0.071495   0.000483  -0.000002   0.000000
     4  C   -0.145540   0.007222   0.218928  -0.056292  -0.000252   0.000003
     5  C    0.078125  -0.033207  -0.046784   0.003585   0.003838   0.000073
     6  O   -0.138853  -0.000842   0.004808  -0.000015  -0.000333  -0.000005
     7  N    7.407138   0.263581   0.001241   0.000011  -0.077927  -0.002433
     8  C    0.263581   5.790088  -0.000277   0.000001   0.079859  -0.124048
     9  C    0.001241  -0.000277   5.040157   0.296707   0.000021  -0.000000
    10  O    0.000011   0.000001   0.296707   8.066529  -0.000000   0.000000
    11  C   -0.077927   0.079859   0.000021  -0.000000   5.067120   0.502550
    12  O   -0.002433  -0.124048  -0.000000   0.000000   0.502550   8.127814
    13  N    0.000016  -0.165399   0.000001  -0.000000   0.135087  -0.171851
    14  C   -0.000395   0.007231   0.000000  -0.000000  -0.057233  -0.003802
    15  C   -0.000005  -0.000194   0.000000  -0.000000   0.003112  -0.000375
    16  O   -0.000000  -0.000005   0.000000  -0.000000   0.000464  -0.000012
    17  N    0.000000   0.000004  -0.000000   0.000000   0.000923  -0.000028
    18  C   -0.000000  -0.000000   0.000000   0.000000  -0.000011   0.000001
    19  C   -0.063246   0.087873   0.000000  -0.000000  -0.058323   0.022702
    20  O   -0.002511  -0.066607  -0.000000  -0.000000   0.003786  -0.000018
    21  C    0.004578  -0.037337   0.000000  -0.000000   0.007744  -0.001237
    22  H    0.000006  -0.000000  -0.000004  -0.000072  -0.000000  -0.000000
    23  H    0.001461   0.000046   0.364775  -0.039649  -0.000000  -0.000000
    24  H    0.000026  -0.000144  -0.000000   0.000000   0.002959   0.000337
    25  H    0.000000  -0.000000  -0.000000   0.000000   0.000000  -0.000000
    26  H    0.000000   0.000000  -0.000000   0.000000  -0.000000  -0.000000
              13         14         15         16         17         18
     1  C   -0.000000   0.000000  -0.000000  -0.000000   0.000000  -0.000000
     2  O   -0.000000  -0.000000  -0.000000   0.000000   0.000000   0.000000
     3  N    0.000000  -0.000000   0.000000  -0.000000  -0.000000   0.000000
     4  C   -0.000022  -0.000000  -0.000000   0.000000   0.000000  -0.000000
     5  C   -0.000441  -0.000011  -0.000000  -0.000000   0.000000  -0.000000
     6  O   -0.000036   0.000000  -0.000000  -0.000000   0.000000  -0.000000
     7  N    0.000016  -0.000395  -0.000005  -0.000000   0.000000  -0.000000
     8  C   -0.165399   0.007231  -0.000194  -0.000005   0.000004  -0.000000
     9  C    0.000001   0.000000   0.000000   0.000000  -0.000000   0.000000
    10  O   -0.000000  -0.000000  -0.000000  -0.000000   0.000000   0.000000
    11  C    0.135087  -0.057233   0.003112   0.000464   0.000923  -0.000011
    12  O   -0.171851  -0.003802  -0.000375  -0.000012  -0.000028   0.000001
    13  N    7.340327   0.330963  -0.070688  -0.005646   0.000634  -0.000208
    14  C    0.330963   5.221215   0.216429  -0.083283  -0.149167   0.006569
    15  C   -0.070688   0.216429   4.890124   0.504539   0.143490  -0.043394
    16  O   -0.005646  -0.083283   0.504539   8.089147  -0.146916  -0.004894
    17  N    0.000634  -0.149167   0.143490  -0.146916   7.298818   0.334645
    18  C   -0.000208   0.006569  -0.043394  -0.004894   0.334645   4.961497
    19  C    0.003020  -0.000275   0.000040   0.000001  -0.000001   0.000000
    20  O   -0.000034   0.000000  -0.000000   0.000000  -0.000000  -0.000000
    21  C    0.002190  -0.000082  -0.000002  -0.000001   0.000002  -0.000000
    22  H   -0.000000   0.000000  -0.000000  -0.000000   0.000000   0.000000
    23  H   -0.000003  -0.000000  -0.000000  -0.000000   0.000000  -0.000000
    24  H   -0.046068   0.361693  -0.045358   0.003317   0.002986  -0.000170
    25  H   -0.000003  -0.000113  -0.000828   0.000625  -0.046402   0.366447
    26  H    0.000007  -0.000110   0.002476   0.000240  -0.038075   0.360331
              19         20         21         22         23         24
     1  C   -0.000002  -0.000001  -0.000000   0.398256   0.000058   0.000000
     2  O   -0.000001  -0.000002  -0.000000  -0.058166  -0.000035   0.000000
     3  N    0.000048   0.000009   0.000000  -0.113343   0.004164   0.000000
     4  C   -0.000524  -0.000150  -0.000003   0.008158  -0.084351   0.000000
     5  C   -0.000913   0.004805  -0.000210  -0.000182   0.009635   0.000002
     6  O   -0.000432   0.000416  -0.000110   0.000008  -0.000197   0.000000
     7  N   -0.063246  -0.002511   0.004578   0.000006   0.001461   0.000026
     8  C    0.087873  -0.066607  -0.037337  -0.000000   0.000046  -0.000144
     9  C    0.000000  -0.000000   0.000000  -0.000004   0.364775  -0.000000
    10  O   -0.000000  -0.000000  -0.000000  -0.000072  -0.039649   0.000000
    11  C   -0.058323   0.003786   0.007744  -0.000000  -0.000000   0.002959
    12  O    0.022702  -0.000018  -0.001237  -0.000000  -0.000000   0.000337
    13  N    0.003020  -0.000034   0.002190  -0.000000  -0.000003  -0.046068
    14  C   -0.000275   0.000000  -0.000082   0.000000  -0.000000   0.361693
    15  C    0.000040  -0.000000  -0.000002  -0.000000  -0.000000  -0.045358
    16  O    0.000001   0.000000  -0.000001  -0.000000  -0.000000   0.003317
    17  N   -0.000001  -0.000000   0.000002   0.000000   0.000000   0.002986
    18  C    0.000000  -0.000000  -0.000000   0.000000  -0.000000  -0.000170
    19  C    5.589460   0.204655   0.051203  -0.000000   0.000001  -0.000006
    20  O    0.204655   8.111992  -0.008708  -0.000000   0.000000   0.000000
    21  C    0.051203  -0.008708   5.528690  -0.000000  -0.000000   0.000003
    22  H   -0.000000  -0.000000  -0.000000   0.533032   0.000001   0.000000
    23  H    0.000001   0.000000  -0.000000   0.000001   0.488842   0.000000
    24  H   -0.000006   0.000000   0.000003   0.000000   0.000000   0.430807
    25  H   -0.000000  -0.000000   0.000000   0.000000   0.000000   0.000024
    26  H   -0.000000   0.000000  -0.000000   0.000000   0.000000  -0.000002
              25         26
     1  C    0.000000   0.000000
     2  O    0.000000   0.000000
     3  N   -0.000000  -0.000000
     4  C    0.000000   0.000000
     5  C    0.000000   0.000000
     6  O    0.000000   0.000000
     7  N    0.000000   0.000000
     8  C   -0.000000   0.000000
     9  C   -0.000000  -0.000000
    10  O    0.000000   0.000000
    11  C    0.000000  -0.000000
    12  O   -0.000000  -0.000000
    13  N   -0.000003   0.000007
    14  C   -0.000113  -0.000110
    15  C   -0.000828   0.002476
    16  O    0.000625   0.000240
    17  N   -0.046402  -0.038075
    18  C    0.366447   0.360331
    19  C   -0.000000  -0.000000
    20  O   -0.000000   0.000000
    21  C    0.000000  -0.000000
    22  H    0.000000   0.000000
    23  H    0.000000   0.000000
    24  H    0.000024  -0.000002
    25  H    0.457021  -0.039314
    26  H   -0.039314   0.455906
 Mulliken charges:
               1
     1  C    0.311845
     2  O   -0.347261
     3  N   -0.284380
     4  C    0.195432
     5  C    0.426466
     6  O   -0.248811
     7  N   -0.326398
     8  C    0.192602
     9  C    0.190029
    10  O   -0.274944
    11  C    0.386620
    12  O   -0.349672
    13  N   -0.351846
    14  C    0.150372
    15  C    0.400634
    16  O   -0.357575
    17  N   -0.400912
    18  C    0.019190
    19  C    0.164721
    20  O   -0.247633
    21  C    0.453281
    22  H    0.232307
    23  H    0.255253
    24  H    0.289595
    25  H    0.262544
    26  H    0.258541
 Sum of Mulliken charges =   1.00000
 Mulliken charges with hydrogens summed into heavy atoms:
               1
     1  C    0.544152
     2  O   -0.347261
     3  N   -0.284380
     4  C    0.195432
     5  C    0.426466
     6  O   -0.248811
     7  N   -0.326398
     8  C    0.192602
     9  C    0.445282
    10  O   -0.274944
    11  C    0.386620
    12  O   -0.349672
    13  N   -0.351846
    14  C    0.439967
    15  C    0.400634
    16  O   -0.357575
    17  N   -0.400912
    18  C    0.540275
    19  C    0.164721
    20  O   -0.247633
    21  C    0.453281
 Electronic spatial extent (au):  <R**2>=           8602.7314
 Charge=              1.0000 electrons
 Dipole moment (field-independent basis, Debye):
    X=            -11.2364    Y=             -0.0796    Z=             -0.0307  Tot=             11.2367
 Quadrupole moment (field-independent basis, Debye-Ang):
   XX=             -8.6423   YY=            -92.1358   ZZ=           -130.5920
   XY=              2.6670   XZ=             20.7712   YZ=              2.2192
 Traceless Quadrupole moment (field-independent basis, Debye-Ang):
   XX=             68.4811   YY=            -15.0124   ZZ=            -53.4687
   XY=              2.6670   XZ=             20.7712   YZ=              2.2192
 Octapole moment (field-independent basis, Debye-Ang**2):
  XXX=           -583.3000  YYY=              5.5058  ZZZ=              0.0046  XYY=            -54.3083
  XXY=            -16.0589  XXZ=            -15.3095  XZZ=              7.2717  YZZ=             -3.1738
  YYZ=             -3.8083  XYZ=             -9.9263
 Hexadecapole moment (field-independent basis, Debye-Ang**3):
 XXXX=          -3253.9449 YYYY=          -1401.9065 ZZZZ=           -559.8991 XXXY=            426.6571
 XXXZ=            772.5706 YYYX=             44.7089 YYYZ=            -23.3194 ZZZX=             -0.1158
 ZZZY=             12.5983 XXYY=          -1689.6363 XXZZ=          -1787.2184 YYZZ=           -331.3960
 XXYZ=             52.8689 YYXZ=             37.5133 ZZXY=            -30.6597
 N-N= 1.446844673831D+03 E-N=-5.424646391106D+03  KE= 1.084159596339D+03
 No NMR shielding tensors so no spin-rotation constants.
 Leave Link  601 at Wed Jan 12 16:47:23 2022, MaxMem=   402653184 cpu:              45.4 elap:               8.0
 (Enter /work/01114/jfonner/frontera/gaussian/16rC.01/g16/l9999.exe)
 Unable to Open any file for archive entry.
 1\1\GINC-C205-019\SP\RwB97XD\6-31G\C11H5N4O6(1+)\SA748948\12-Jan-2022\
 0\\#p int=acc2e=12 wb97xd/6-31g\\Atom number=26\\1,1\C,0,3.006,0.047,1
 4.361\O,0,2.958,-1.169,14.515\N,0,3.481,0.887,15.262\C,0,4.163,0.392,1
 6.442\C,0,3.424,0.965,17.631\O,0,3.136,2.11,17.612\N,0,3.173,0.129,18.
 647\C,0,2.559,0.516,19.903\C,0,5.688,0.75,16.389\O,0,6.264,0.13,15.236
 \C,0,3.35,-0.122,21.014\O,0,3.366,-1.339,21.14\N,0,4.067,0.688,21.768\
 C,0,4.888,0.205,22.851\C,0,4.35,0.769,24.174\O,0,4.161,1.981,24.269\N,
 0,4.065,-0.12,25.151\C,0,3.72,0.313,26.515\C,0,1.138,-0.021,19.983\O,0
 ,0.393,0.394,18.824\C,0,0.486,0.501,21.167\H,0,2.70245299,0.50123899,1
 3.44098579\H,0,6.21369711,0.36219066,17.23643523\H,0,5.91042889,0.4886
 9974,22.71296516\H,0,4.57410357,0.19198451,27.14805793\H,0,2.86415355,
 -0.20219012,26.8984136\\Version=ES64L-G16RevC.01\State=1-A\HF=-1090.52
 10083\RMSD=8.853e-09\Dipole=0.0364377,0.0979817,4.4196125\Quadrupole=-
 11.0670823,-40.5304927,51.597575,0.5027111,3.1498246,-13.0287691\PG=C0
 1 [X(C11H5N4O6)]\\@
 The archive entry for this job was punched.


 NEVER TEACH A PIG TO SING.
 IT WASTES YOUR TIME AND ANNOYS THE PIG.
     -- SEEN ON A GREETING CARD
 Job cpu time:       0 days  0 hours 49 minutes 26.7 seconds.
 Elapsed time:       0 days  0 hours  8 minutes 51.2 seconds.
 File lengths (MBytes):  RWF=     24 Int=      0 D2E=      0 Chk=      3 Scr=      1
 Normal termination of Gaussian 16 at Wed Jan 12 16:47:24 2022.
