 Entering Gaussian System, Link 0=g16
 Input=4znn_01_gebf_dft_1.gjf
 Output=4znn_01_gebf_dft_1.log
 Initial command:
 /work/01114/jfonner/frontera/gaussian/16rC.01/g16/l1.exe "/scratch1/08249/sa748948/lsqc/62950343/Gau-176205.inp" -scrdir="/scratch1/08249/sa748948/lsqc/62950343/"
 Entering Link 1 = /work/01114/jfonner/frontera/gaussian/16rC.01/g16/l1.exe PID=    176214.
  
 Copyright (c) 1988-2019, Gaussian, Inc.  All Rights Reserved.
  
 This is part of the Gaussian(R) 16 program.  It is based on
 the Gaussian(R) 09 system (copyright 2009, Gaussian, Inc.),
 the Gaussian(R) 03 system (copyright 2003, Gaussian, Inc.),
 the Gaussian(R) 98 system (copyright 1998, Gaussian, Inc.),
 the Gaussian(R) 94 system (copyright 1995, Gaussian, Inc.),
 the Gaussian 92(TM) system (copyright 1992, Gaussian, Inc.),
 the Gaussian 90(TM) system (copyright 1990, Gaussian, Inc.),
 the Gaussian 88(TM) system (copyright 1988, Gaussian, Inc.),
 the Gaussian 86(TM) system (copyright 1986, Carnegie Mellon
 University), and the Gaussian 82(TM) system (copyright 1983,
 Carnegie Mellon University). Gaussian is a federally registered
 trademark of Gaussian, Inc.
  
 This software contains proprietary and confidential information,
 including trade secrets, belonging to Gaussian, Inc.
  
 This software is provided under written license and may be
 used, copied, transmitted, or stored only in accord with that
 written license.
  
 The following legend is applicable only to US Government
 contracts under FAR:
  
                    RESTRICTED RIGHTS LEGEND
  
 Use, reproduction and disclosure by the US Government is
 subject to restrictions as set forth in subparagraphs (a)
 and (c) of the Commercial Computer Software - Restricted
 Rights clause in FAR 52.227-19.
  
 Gaussian, Inc.
 340 Quinnipiac St., Bldg. 40, Wallingford CT 06492
  
  
 ---------------------------------------------------------------
 Warning -- This program may not be used in any manner that
 competes with the business of Gaussian, Inc. or will provide
 assistance to any competitor of Gaussian, Inc.  The licensee
 of this program is prohibited from giving any competitor of
 Gaussian, Inc. access to this program.  By using this program,
 the user acknowledges that Gaussian, Inc. is engaged in the
 business of creating and licensing software in the field of
 computational chemistry and represents and warrants to the
 licensee that it is not a competitor of Gaussian, Inc. and that
 it will not use this program in any manner prohibited above.
 ---------------------------------------------------------------
  

 Cite this work as:
 Gaussian 16, Revision C.01,
 M. J. Frisch, G. W. Trucks, H. B. Schlegel, G. E. Scuseria, 
 M. A. Robb, J. R. Cheeseman, G. Scalmani, V. Barone, 
 G. A. Petersson, H. Nakatsuji, X. Li, M. Caricato, A. V. Marenich, 
 J. Bloino, B. G. Janesko, R. Gomperts, B. Mennucci, H. P. Hratchian, 
 J. V. Ortiz, A. F. Izmaylov, J. L. Sonnenberg, D. Williams-Young, 
 F. Ding, F. Lipparini, F. Egidi, J. Goings, B. Peng, A. Petrone, 
 T. Henderson, D. Ranasinghe, V. G. Zakrzewski, J. Gao, N. Rega, 
 G. Zheng, W. Liang, M. Hada, M. Ehara, K. Toyota, R. Fukuda, 
 J. Hasegawa, M. Ishida, T. Nakajima, Y. Honda, O. Kitao, H. Nakai, 
 T. Vreven, K. Throssell, J. A. Montgomery, Jr., J. E. Peralta, 
 F. Ogliaro, M. J. Bearpark, J. J. Heyd, E. N. Brothers, K. N. Kudin, 
 V. N. Staroverov, T. A. Keith, R. Kobayashi, J. Normand, 
 K. Raghavachari, A. P. Rendell, J. C. Burant, S. S. Iyengar, 
 J. Tomasi, M. Cossi, J. M. Millam, M. Klene, C. Adamo, R. Cammi, 
 J. W. Ochterski, R. L. Martin, K. Morokuma, O. Farkas, 
 J. B. Foresman, and D. J. Fox, Gaussian, Inc., Wallingford CT, 2019.
 
 ******************************************
 Gaussian 16:  ES64L-G16RevC.01  3-Jul-2019
                 5-Jan-2022 
 ******************************************
 %chk=4znn_01_gebf_dft_1.chk
 %nproc=56
 Will use up to   56 processors via shared memory.
 %mem=3gb
 ----------------------------
 #p int=acc2e=12 wb97xd/6-31g
 ----------------------------
 1/38=1,172=1/1;
 2/12=2,17=6,18=5,40=1/2;
 3/5=1,6=6,11=2,25=1,27=12,30=1,74=-58/1,2,3;
 4//1;
 5/5=2,38=5,87=12/2;
 6/7=2,8=2,9=2,10=2,28=1,87=12/1;
 99/5=1,9=1/99;
 Leave Link    1 at Wed Jan  5 16:30:22 2022, MaxMem=   402653184 cpu:               3.1 elap:               0.5
 (Enter /work/01114/jfonner/frontera/gaussian/16rC.01/g16/l101.exe)
 --------------
 Atom number=15
 --------------
 Symbolic Z-matrix:
 Charge =  3 Multiplicity = 1
 n                    -6.815    -0.668     1.607 
 c                    -5.714     0.002     2.373 
 c                    -4.357    -0.673     2.588 
 o                    -4.212    -1.87      2.492 
 n                    -3.381     0.125     2.953 
 c                    -2.062    -0.39      3.274 
 c                    -1.636     0.175     4.6 
 o                    -1.744     1.356     4.862 
 n                    -1.095    -0.7       5.415 
 c                    -0.572    -0.311     6.669 
 c                    -0.993    -0.045     2.197 
 c                     0.39     -0.488     2.64 
 c                    -1.378    -0.662     0.897 
 h                     0.42341  -0.6938    6.75571 
 h                    -1.15903  -0.7322    7.45823 
 
 ITRead=  0  0  0  0  0  0  0  0  0  0  0  0  0  0  0
 MicOpt= -1 -1 -1 -1 -1 -1 -1 -1 -1 -1 -1 -1 -1 -1 -1
 NAtoms=     15 NQM=       15 NQMF=       0 NMMI=      0 NMMIF=      0
                NMic=       0 NMicF=      0.
                    Isotopes and Nuclear Properties:
 (Nuclear quadrupole moments (NQMom) in fm**2, nuclear magnetic moments (NMagM)
  in nuclear magnetons)

  Atom         1           2           3           4           5           6           7           8           9          10
 IAtWgt=          14          12          12          16          14          12          12          16          14          12
 AtmWgt=  14.0030740  12.0000000  12.0000000  15.9949146  14.0030740  12.0000000  12.0000000  15.9949146  14.0030740  12.0000000
 NucSpn=           2           0           0           0           2           0           0           0           2           0
 AtZEff=  -0.0000000  -0.0000000  -0.0000000  -0.0000000  -0.0000000  -0.0000000  -0.0000000  -0.0000000  -0.0000000  -0.0000000
 NQMom=    2.0440000   0.0000000   0.0000000   0.0000000   2.0440000   0.0000000   0.0000000   0.0000000   2.0440000   0.0000000
 NMagM=    0.4037610   0.0000000   0.0000000   0.0000000   0.4037610   0.0000000   0.0000000   0.0000000   0.4037610   0.0000000
 AtZNuc=   7.0000000   6.0000000   6.0000000   8.0000000   7.0000000   6.0000000   6.0000000   8.0000000   7.0000000   6.0000000

  Atom        11          12          13          14          15
 IAtWgt=          12          12          12           1           1
 AtmWgt=  12.0000000  12.0000000  12.0000000   1.0078250   1.0078250
 NucSpn=           0           0           0           1           1
 AtZEff=  -0.0000000  -0.0000000  -0.0000000  -0.0000000  -0.0000000
 NQMom=    0.0000000   0.0000000   0.0000000   0.0000000   0.0000000
 NMagM=    0.0000000   0.0000000   0.0000000   2.7928460   2.7928460
 AtZNuc=   6.0000000   6.0000000   6.0000000   1.0000000   1.0000000
 Leave Link  101 at Wed Jan  5 16:30:23 2022, MaxMem=   402653184 cpu:               5.9 elap:               1.1
 (Enter /work/01114/jfonner/frontera/gaussian/16rC.01/g16/l202.exe)
                          Input orientation:                          
 ---------------------------------------------------------------------
 Center     Atomic      Atomic             Coordinates (Angstroms)
 Number     Number       Type             X           Y           Z
 ---------------------------------------------------------------------
      1          7           0       -6.815000   -0.668000    1.607000
      2          6           0       -5.714000    0.002000    2.373000
      3          6           0       -4.357000   -0.673000    2.588000
      4          8           0       -4.212000   -1.870000    2.492000
      5          7           0       -3.381000    0.125000    2.953000
      6          6           0       -2.062000   -0.390000    3.274000
      7          6           0       -1.636000    0.175000    4.600000
      8          8           0       -1.744000    1.356000    4.862000
      9          7           0       -1.095000   -0.700000    5.415000
     10          6           0       -0.572000   -0.311000    6.669000
     11          6           0       -0.993000   -0.045000    2.197000
     12          6           0        0.390000   -0.488000    2.640000
     13          6           0       -1.378000   -0.662000    0.897000
     14          1           0        0.423413   -0.693797    6.755711
     15          1           0       -1.159026   -0.732204    7.458232
 ---------------------------------------------------------------------
                    Distance matrix (angstroms):
                    1          2          3          4          5
     1  N    0.000000
     2  C    1.499285   0.000000
     3  C    2.646535   1.530784   0.000000
     4  O    3.000606   2.403029   1.209566   0.000000
     5  N    3.772654   2.407160   1.312480   2.209775   0.000000
     6  C    5.044520   3.781874   2.411993   2.724780   1.451905
     7  C    6.040756   4.649682   3.488709   3.906593   2.400028
     8  O    6.356622   4.877431   4.014435   4.702659   2.799895
     9  N    6.871702   5.575099   4.316631   4.430408   3.459460
    10  C    8.045268   6.707738   5.577798   5.755642   4.678593
    11  C    5.884889   4.724513   3.444381   3.712090   2.510574
    12  C    7.280901   6.129454   4.750888   4.807310   3.833299
    13  C    5.483166   4.628214   3.425499   3.469127   2.976326
    14  H    8.882821   7.573647   6.342129   6.407007   5.441011
    15  H    8.138248   6.866325   5.826637   5.939587   5.095987
                    6          7          8          9         10
     6  C    0.000000
     7  C    1.502989   0.000000
     8  O    2.381467   1.214524   0.000000
     9  N    2.369614   1.312452   2.225791   0.000000
    10  C    3.708418   2.376774   2.723550   1.413282   0.000000
    11  C    1.556186   2.497250   3.103067   3.285567   4.499642
    12  C    2.534534   2.895832   3.590484   3.154488   4.146036
    13  C    2.488367   3.805173   4.464023   4.527014   5.838563
    14  H    4.288576   3.105331   3.533481   2.025617   1.070000
    15  H    4.294213   3.036448   3.382781   2.044489   1.070000
                   11         12         13         14         15
    11  C    0.000000
    12  C    1.518284   0.000000
    13  C    1.489602   2.488805   0.000000
    14  H    4.817573   4.120988   6.129486   0.000000
    15  H    5.308519   5.066999   6.565261   1.731799   0.000000
 Stoichiometry    C8H2N3O2(3+)
 Framework group  C1[X(C8H2N3O2)]
 Deg. of freedom    39
 Full point group                 C1      NOp   1
 Largest Abelian subgroup         C1      NOp   1
 Largest concise Abelian subgroup C1      NOp   1
                         Standard orientation:                         
 ---------------------------------------------------------------------
 Center     Atomic      Atomic             Coordinates (Angstroms)
 Number     Number       Type             X           Y           Z
 ---------------------------------------------------------------------
      1          7           0       -4.522302   -0.814397    0.049157
      2          6           0       -3.118837   -0.915589    0.566751
      3          6           0       -1.940619   -0.275714   -0.171936
      4          8           0       -1.997167    0.011532   -1.345539
      5          7           0       -0.844721   -0.127050    0.534826
      6          6           0        0.375848    0.387003   -0.060142
      7          6           0        1.507274   -0.537935    0.291055
      8          8           0        1.682719   -0.940672    1.423349
      9          7           0        2.307364   -0.822283   -0.709711
     10          6           0        3.462388   -1.615432   -0.524778
     11          6           0        0.722729    1.829989    0.408026
     12          6           0        2.070209    2.270435   -0.135565
     13          6           0       -0.365882    2.761480    0.000394
     14          1           0        4.300100   -1.099245   -0.945123
     15          1           0        3.354431   -2.546940   -1.040082
 ---------------------------------------------------------------------
 Rotational constants (GHZ):           1.3778467           0.5109407           0.4262069
 Leave Link  202 at Wed Jan  5 16:30:24 2022, MaxMem=   402653184 cpu:               3.0 elap:               0.6
 (Enter /work/01114/jfonner/frontera/gaussian/16rC.01/g16/l301.exe)
 Standard basis: 6-31G (6D, 7F)
 Ernie: Thresh=  0.10000D-02 Tol=  0.10000D-05 Strict=F.
 There are   121 symmetry adapted cartesian basis functions of A   symmetry.
 There are   121 symmetry adapted basis functions of A   symmetry.
   121 basis functions,   294 primitive gaussians,   121 cartesian basis functions
    42 alpha electrons       42 beta electrons
       nuclear repulsion energy       631.1790726419 Hartrees.
 IExCor= 4639 DFT=T Ex+Corr=wB97XD ExCW=0 ScaHFX=  1.000000
 ScaDFX=  1.000000  1.000000  1.000000  1.000000 ScalE2=  1.000000  1.000000
 IRadAn=      5 IRanWt=     -1 IRanGd=            0 ICorTp=0 IEmpDi=121
 HFx  wShort=  0.000000 wLong=  0.200000 cFull=  0.222036 cShort=  0.000000 cLong=  0.777964
 DFx  wShort=  0.000000 wLong=  0.200000 cFull=  0.000000 cShort=  0.000000 cLong=  1.000000
 NAtoms=   15 NActive=   15 NUniq=   15 SFac= 1.00D+00 NAtFMM=   60 NAOKFM=F Big=F
 Integral buffers will be    131072 words long.
 Raffenetti 2 integral format.
 Two-electron integral symmetry is turned on.
 R6Disp:  Grimme-D2 Dispersion energy=       -0.0065967065 Hartrees.
 Nuclear repulsion after empirical dispersion term =      631.1724759354 Hartrees.
 Leave Link  301 at Wed Jan  5 16:30:24 2022, MaxMem=   402653184 cpu:               3.4 elap:               0.6
 (Enter /work/01114/jfonner/frontera/gaussian/16rC.01/g16/l302.exe)
 NPDir=0 NMtPBC=     1 NCelOv=     1 NCel=       1 NClECP=     1 NCelD=      1
         NCelK=      1 NCelE2=     1 NClLst=     1 CellRange=     0.0.
 One-electron integrals computed using PRISM.
 One-electron integral symmetry used in STVInt
 NBasis=   121 RedAO= T EigKep=  3.85D-03  NBF=   121
 NBsUse=   121 1.00D-06 EigRej= -1.00D+00 NBFU=   121
 Precomputing XC quadrature grid using
 IXCGrd= 4 IRadAn=           5 IRanWt=          -1 IRanGd=           0 AccXCQ= 1.00D-12.
 Generated NRdTot=       0 NPtTot=           0 NUsed=           0 NTot=          32
 NSgBfM=   120   120   120   120   120 MxSgAt=    15 MxSgA2=    15.
 Leave Link  302 at Wed Jan  5 16:30:33 2022, MaxMem=   402653184 cpu:              50.0 elap:               9.1
 (Enter /work/01114/jfonner/frontera/gaussian/16rC.01/g16/l303.exe)
 DipDrv:  MaxL=1.
 Leave Link  303 at Wed Jan  5 16:30:35 2022, MaxMem=   402653184 cpu:               7.1 elap:               1.3
 (Enter /work/01114/jfonner/frontera/gaussian/16rC.01/g16/l401.exe)
 ExpMin= 1.61D-01 ExpMax= 5.48D+03 ExpMxC= 8.25D+02 IAcc=3 IRadAn=         5 AccDes= 0.00D+00
 Harris functional with IExCor= 4639 and IRadAn=       5 diagonalized for initial guess.
 HarFok:  IExCor= 4639 AccDes= 0.00D+00 IRadAn=         5 IDoV= 1 UseB2=F ITyADJ=14
 ICtDFT=  3500011 ScaDFX=  1.000000  1.000000  1.000000  1.000000
 FoFCou: FMM=F IPFlag=           0 FMFlag=      100000 FMFlg1=           0
         NFxFlg=           0 DoJE=T BraDBF=F KetDBF=T FulRan=T
         wScrn=  0.000000 ICntrl=       500 IOpCl=  0 I1Cent=   200000004 NGrid=           0
         NMat0=    1 NMatS0=      1 NMatT0=    0 NMatD0=    1 NMtDS0=    0 NMtDT0=    0
 Petite list used in FoFCou.
 Harris En= -594.957542520989    
 JPrj=0 DoOrth=F DoCkMO=F.
 Leave Link  401 at Wed Jan  5 16:30:49 2022, MaxMem=   402653184 cpu:              75.4 elap:              14.3
 (Enter /work/01114/jfonner/frontera/gaussian/16rC.01/g16/l502.exe)
 Integral symmetry usage will be decided dynamically.
 Closed shell SCF:
 Using DIIS extrapolation, IDIIS=  1040.
 NGot=   402653184 LenX=   402615290 LenY=   402600208
 Requested convergence on RMS density matrix=1.00D-08 within 128 cycles.
 Requested convergence on MAX density matrix=1.00D-06.
 Requested convergence on             energy=1.00D-06.
 No special actions if energy rises.
 Fock matrices will be formed incrementally for  20 cycles.
 Integral accuracy reduced to 1.0D-05 until final iterations.

 Cycle   1  Pass 0  IDiag  1:
 FoFJK:  IHMeth= 1 ICntrl=       0 DoSepK=T KAlg= 0 I1Cent=           0 FoldK=F
 IRaf=         1 NMat=       1 IRICut=       1 DoRegI=T DoRafI=F ISym2E= 0 IDoP0=0 IntGTp=1.
 FoFCou: FMM=F IPFlag=           0 FMFlag=      100000 FMFlg1=           0
         NFxFlg=           0 DoJE=T BraDBF=F KetDBF=F FulRan=T
         wScrn=  0.000000 ICntrl=       500 IOpCl=  0 I1Cent=           0 NGrid=           0
         NMat0=    1 NMatS0=      1 NMatT0=    0 NMatD0=    1 NMtDS0=    0 NMtDT0=    0
 Symmetry not used in FoFCou.
 E= -617.349182886608    
 DIIS: error= 3.99D-02 at cycle   1 NSaved=   1.
 NSaved= 1 IEnMin= 1 EnMin= -617.349182886608     IErMin= 1 ErrMin= 3.99D-02
 ErrMax= 3.99D-02  0.00D+00 EMaxC= 1.00D-01 BMatC= 5.62D-01 BMatP= 5.62D-01
 IDIUse=3 WtCom= 6.01D-01 WtEn= 3.99D-01
 Coeff-Com:  0.100D+01
 Coeff-En:   0.100D+01
 Coeff:      0.100D+01
 Gap=     0.055 Goal=   None    Shift=    0.000
 GapD=    0.055 DampG=0.500 DampE=0.500 DampFc=0.2500 IDamp=-1.
 Damping current iteration by 2.50D-01
 RMSDP=1.66D-02 MaxDP=3.56D-01              OVMax= 6.24D-01

 Cycle   2  Pass 0  IDiag  1:
 RMSU=  4.14D-03    CP:  1.01D+00
 E= -617.438377316719     Delta-E=       -0.089194430111 Rises=F Damp=T
 DIIS: error= 3.42D-02 at cycle   2 NSaved=   2.
 NSaved= 2 IEnMin= 2 EnMin= -617.438377316719     IErMin= 2 ErrMin= 3.42D-02
 ErrMax= 3.42D-02  0.00D+00 EMaxC= 1.00D-01 BMatC= 2.40D-01 BMatP= 5.62D-01
 IDIUse=3 WtCom= 6.58D-01 WtEn= 3.42D-01
 Coeff-Com: -0.427D+00 0.143D+01
 Coeff-En:   0.238D+00 0.762D+00
 Coeff:     -0.199D+00 0.120D+01
 Gap=    -0.085 Goal=   None    Shift=    0.000
 RMSDP=7.92D-03 MaxDP=2.04D-01 DE=-8.92D-02 OVMax= 7.73D-01

 Cycle   3  Pass 0  IDiag  1:
 RMSU=  7.73D-03    CP:  1.02D+00  1.37D+00
 E= -617.484799812491     Delta-E=       -0.046422495772 Rises=F Damp=F
 DIIS: error= 8.86D-02 at cycle   3 NSaved=   3.
 NSaved= 3 IEnMin= 3 EnMin= -617.484799812491     IErMin= 2 ErrMin= 3.42D-02
 ErrMax= 8.86D-02  0.00D+00 EMaxC= 1.00D-01 BMatC= 3.95D-01 BMatP= 2.40D-01
 IDIUse=2 WtCom= 0.00D+00 WtEn= 1.00D+00
 Coeff-En:   0.000D+00 0.460D+00 0.540D+00
 Coeff:      0.000D+00 0.460D+00 0.540D+00
 Gap=     0.138 Goal=   None    Shift=    0.000
 RMSDP=1.29D-02 MaxDP=2.98D-01 DE=-4.64D-02 OVMax= 9.21D-01

 Cycle   4  Pass 0  IDiag  1:
 RMSU=  6.96D-03    CP:  1.02D+00  3.00D+00 -2.30D-02
 E= -615.375524861883     Delta-E=        2.109274950608 Rises=F Damp=F
 DIIS: error= 9.90D-02 at cycle   4 NSaved=   4.
 NSaved= 4 IEnMin= 3 EnMin= -617.484799812491     IErMin= 2 ErrMin= 3.42D-02
 ErrMax= 9.90D-02  0.00D+00 EMaxC= 1.00D-01 BMatC= 1.36D+00 BMatP= 2.40D-01
 IDIUse=2 WtCom= 0.00D+00 WtEn= 1.00D+00
 Coeff-En:   0.000D+00 0.000D+00 0.762D+00 0.238D+00
 Coeff:      0.000D+00 0.000D+00 0.762D+00 0.238D+00
 Gap=    -0.041 Goal=   None    Shift=    0.000
 RMSDP=1.04D-02 MaxDP=2.72D-01 DE= 2.11D+00 OVMax= 8.99D-01

 Cycle   5  Pass 0  IDiag  1:
 RMSU=  5.26D-03    CP:  1.03D+00  1.77D+00  5.58D-01  2.47D-01
 E= -617.670878167266     Delta-E=       -2.295353305383 Rises=F Damp=F
 DIIS: error= 6.96D-02 at cycle   5 NSaved=   5.
 NSaved= 5 IEnMin= 5 EnMin= -617.670878167266     IErMin= 2 ErrMin= 3.42D-02
 ErrMax= 6.96D-02  0.00D+00 EMaxC= 1.00D-01 BMatC= 2.62D-01 BMatP= 2.40D-01
 IDIUse=3 WtCom= 3.04D-01 WtEn= 6.96D-01
 EnCoef did     5 forward-backward iterations
 Coeff-Com: -0.277D+00 0.548D+00 0.386D+00 0.289D-01 0.314D+00
 Coeff-En:   0.000D+00 0.000D+00 0.408D+00 0.268D-01 0.566D+00
 Coeff:     -0.844D-01 0.167D+00 0.401D+00 0.274D-01 0.489D+00
 Gap=     0.048 Goal=   None    Shift=    0.000
 RMSDP=5.79D-03 MaxDP=1.37D-01 DE=-2.30D+00 OVMax= 3.63D-01

 Cycle   6  Pass 0  IDiag  1:
 RMSU=  4.86D-03    CP:  1.03D+00  2.02D+00  4.60D-01  2.48D-01  4.50D-01
 E= -617.799306794261     Delta-E=       -0.128428626995 Rises=F Damp=F
 DIIS: error= 2.17D-02 at cycle   6 NSaved=   6.
 NSaved= 6 IEnMin= 6 EnMin= -617.799306794261     IErMin= 6 ErrMin= 2.17D-02
 ErrMax= 2.17D-02  0.00D+00 EMaxC= 1.00D-01 BMatC= 1.05D-01 BMatP= 2.40D-01
 IDIUse=3 WtCom= 7.83D-01 WtEn= 2.17D-01
 EnCoef did     4 forward-backward iterations
 Coeff-Com: -0.153D+00 0.268D+00 0.232D+00-0.429D-01 0.331D+00 0.365D+00
 Coeff-En:   0.000D+00 0.000D+00 0.159D+00 0.000D+00 0.318D+00 0.522D+00
 Coeff:     -0.120D+00 0.210D+00 0.216D+00-0.336D-01 0.328D+00 0.399D+00
 Gap=     0.130 Goal=   None    Shift=    0.000
 RMSDP=3.72D-03 MaxDP=7.42D-02 DE=-1.28D-01 OVMax= 2.93D-01

 Cycle   7  Pass 0  IDiag  1:
 RMSU=  1.32D-03    CP:  1.03D+00  1.80D+00  6.42D-01  1.22D-01  6.02D-01
                    CP:  4.23D-01
 E= -617.933101209867     Delta-E=       -0.133794415606 Rises=F Damp=F
 DIIS: error= 6.67D-03 at cycle   7 NSaved=   7.
 NSaved= 7 IEnMin= 7 EnMin= -617.933101209867     IErMin= 7 ErrMin= 6.67D-03
 ErrMax= 6.67D-03  0.00D+00 EMaxC= 1.00D-01 BMatC= 5.36D-03 BMatP= 1.05D-01
 IDIUse=3 WtCom= 9.33D-01 WtEn= 6.67D-02
 Coeff-Com: -0.315D-02 0.118D-02 0.423D-01-0.128D-01 0.114D+00 0.232D+00
 Coeff-Com:  0.626D+00
 Coeff-En:   0.000D+00 0.000D+00 0.000D+00 0.000D+00 0.000D+00 0.000D+00
 Coeff-En:   0.100D+01
 Coeff:     -0.294D-02 0.110D-02 0.395D-01-0.120D-01 0.106D+00 0.217D+00
 Coeff:      0.651D+00
 Gap=     0.112 Goal=   None    Shift=    0.000
 RMSDP=1.18D-03 MaxDP=1.86D-02 DE=-1.34D-01 OVMax= 1.08D-01

 Cycle   8  Pass 0  IDiag  1:
 RMSU=  7.18D-04    CP:  1.03D+00  1.83D+00  5.87D-01  1.78D-01  6.20D-01
                    CP:  5.67D-01  9.15D-01
 E= -617.938226884062     Delta-E=       -0.005125674196 Rises=F Damp=F
 DIIS: error= 4.83D-03 at cycle   8 NSaved=   8.
 NSaved= 8 IEnMin= 8 EnMin= -617.938226884062     IErMin= 8 ErrMin= 4.83D-03
 ErrMax= 4.83D-03  0.00D+00 EMaxC= 1.00D-01 BMatC= 2.88D-03 BMatP= 5.36D-03
 IDIUse=3 WtCom= 9.52D-01 WtEn= 4.83D-02
 Coeff-Com:  0.213D-01-0.342D-01 0.116D-02-0.278D-02-0.140D-01 0.135D-01
 Coeff-Com:  0.401D+00 0.614D+00
 Coeff-En:   0.000D+00 0.000D+00 0.000D+00 0.000D+00 0.000D+00 0.000D+00
 Coeff-En:   0.278D+00 0.722D+00
 Coeff:      0.202D-01-0.325D-01 0.110D-02-0.264D-02-0.133D-01 0.129D-01
 Coeff:      0.395D+00 0.619D+00
 Gap=     0.119 Goal=   None    Shift=    0.000
 RMSDP=5.04D-04 MaxDP=1.03D-02 DE=-5.13D-03 OVMax= 3.44D-02

 Cycle   9  Pass 0  IDiag  1:
 RMSU=  3.43D-04    CP:  1.03D+00  1.83D+00  6.05D-01  1.66D-01  6.13D-01
                    CP:  5.54D-01  1.15D+00  1.12D+00
 E= -617.942438457824     Delta-E=       -0.004211573761 Rises=F Damp=F
 DIIS: error= 1.46D-03 at cycle   9 NSaved=   9.
 NSaved= 9 IEnMin= 9 EnMin= -617.942438457824     IErMin= 9 ErrMin= 1.46D-03
 ErrMax= 1.46D-03  0.00D+00 EMaxC= 1.00D-01 BMatC= 4.46D-04 BMatP= 2.88D-03
 IDIUse=3 WtCom= 9.85D-01 WtEn= 1.46D-02
 Coeff-Com:  0.166D-01-0.235D-01 0.465D-02-0.286D-02-0.163D-01-0.366D-01
 Coeff-Com:  0.908D-01 0.291D+00 0.676D+00
 Coeff-En:   0.000D+00 0.000D+00 0.000D+00 0.000D+00 0.000D+00 0.000D+00
 Coeff-En:   0.000D+00 0.000D+00 0.100D+01
 Coeff:      0.164D-01-0.232D-01 0.458D-02-0.282D-02-0.161D-01-0.360D-01
 Coeff:      0.895D-01 0.287D+00 0.681D+00
 Gap=     0.121 Goal=   None    Shift=    0.000
 RMSDP=3.80D-04 MaxDP=7.31D-03 DE=-4.21D-03 OVMax= 2.63D-02

 Cycle  10  Pass 0  IDiag  1:
 RMSU=  1.84D-04    CP:  1.03D+00  1.83D+00  6.03D-01  1.67D-01  6.09D-01
                    CP:  5.58D-01  1.27D+00  1.46D+00  1.45D+00
 E= -617.943765420406     Delta-E=       -0.001326962582 Rises=F Damp=F
 DIIS: error= 1.39D-03 at cycle  10 NSaved=  10.
 NSaved=10 IEnMin=10 EnMin= -617.943765420406     IErMin=10 ErrMin= 1.39D-03
 ErrMax= 1.39D-03  0.00D+00 EMaxC= 1.00D-01 BMatC= 3.34D-04 BMatP= 4.46D-04
 IDIUse=3 WtCom= 9.86D-01 WtEn= 1.39D-02
 Coeff-Com:  0.162D-01-0.212D-01 0.981D-02-0.218D-02-0.258D-02-0.303D-01
 Coeff-Com: -0.386D-01 0.241D-01 0.468D+00 0.577D+00
 Coeff-En:   0.000D+00 0.000D+00 0.000D+00 0.000D+00 0.000D+00 0.000D+00
 Coeff-En:   0.000D+00 0.000D+00 0.000D+00 0.100D+01
 Coeff:      0.160D-01-0.209D-01 0.967D-02-0.215D-02-0.255D-02-0.299D-01
 Coeff:     -0.380D-01 0.238D-01 0.462D+00 0.582D+00
 Gap=     0.120 Goal=   None    Shift=    0.000
 RMSDP=3.16D-04 MaxDP=4.73D-03 DE=-1.33D-03 OVMax= 2.42D-02

 Cycle  11  Pass 0  IDiag  1:
 RMSU=  9.44D-05    CP:  1.03D+00  1.82D+00  6.04D-01  1.68D-01  6.06D-01
                    CP:  5.56D-01  1.35D+00  1.70D+00  2.04D+00  1.48D+00
 E= -617.944901549872     Delta-E=       -0.001136129466 Rises=F Damp=F
 DIIS: error= 1.23D-03 at cycle  11 NSaved=  11.
 NSaved=11 IEnMin=11 EnMin= -617.944901549872     IErMin=11 ErrMin= 1.23D-03
 ErrMax= 1.23D-03  0.00D+00 EMaxC= 1.00D-01 BMatC= 1.98D-04 BMatP= 3.34D-04
 IDIUse=3 WtCom= 9.88D-01 WtEn= 1.23D-02
 Coeff-Com:  0.223D-01-0.309D-01 0.687D-02-0.108D-02 0.167D-01 0.108D-01
 Coeff-Com: -0.739D-01-0.175D+00-0.139D+00 0.490D-01 0.131D+01
 Coeff-En:   0.000D+00 0.000D+00 0.000D+00 0.000D+00 0.000D+00 0.000D+00
 Coeff-En:   0.000D+00 0.000D+00 0.000D+00 0.000D+00 0.100D+01
 Coeff:      0.220D-01-0.305D-01 0.679D-02-0.106D-02 0.165D-01 0.107D-01
 Coeff:     -0.730D-01-0.173D+00-0.137D+00 0.484D-01 0.131D+01
 Gap=     0.120 Goal=   None    Shift=    0.000
 RMSDP=6.17D-04 MaxDP=1.20D-02 DE=-1.14D-03 OVMax= 5.82D-02

 Cycle  12  Pass 0  IDiag  1:
 RMSU=  1.28D-04    CP:  1.03D+00  1.82D+00  6.02D-01  1.74D-01  6.00D-01
                    CP:  5.63D-01  1.48D+00  2.15D+00  3.00D+00  2.84D+00
                    CP:  2.27D+00
 E= -617.946633605510     Delta-E=       -0.001732055637 Rises=F Damp=F
 DIIS: error= 1.13D-03 at cycle  12 NSaved=  12.
 NSaved=12 IEnMin=12 EnMin= -617.946633605510     IErMin=12 ErrMin= 1.13D-03
 ErrMax= 1.13D-03  0.00D+00 EMaxC= 1.00D-01 BMatC= 1.65D-04 BMatP= 1.98D-04
 IDIUse=3 WtCom= 9.89D-01 WtEn= 1.13D-02
 Coeff-Com:  0.195D-01-0.284D-01 0.123D-02-0.327D-03 0.108D-01 0.212D-01
 Coeff-Com:  0.554D-01 0.878D-01-0.199D+00-0.105D+01 0.102D+01 0.106D+01
 Coeff-En:   0.000D+00 0.000D+00 0.000D+00 0.000D+00 0.000D+00 0.000D+00
 Coeff-En:   0.000D+00 0.000D+00 0.000D+00 0.000D+00 0.000D+00 0.100D+01
 Coeff:      0.193D-01-0.281D-01 0.122D-02-0.323D-03 0.107D-01 0.209D-01
 Coeff:      0.548D-01 0.869D-01-0.197D+00-0.104D+01 0.101D+01 0.106D+01
 Gap=     0.120 Goal=   None    Shift=    0.000
 RMSDP=5.26D-04 MaxDP=7.83D-03 DE=-1.73D-03 OVMax= 5.14D-02

 Cycle  13  Pass 0  IDiag  1:
 RMSU=  3.52D-04    CP:  1.03D+00  1.83D+00  5.98D-01  1.79D-01  5.95D-01
                    CP:  5.61D-01  1.53D+00  2.45D+00  3.00D+00  3.00D+00
                    CP:  3.00D+00  2.92D+00
 E= -617.947965824435     Delta-E=       -0.001332218925 Rises=F Damp=F
 DIIS: error= 1.01D-03 at cycle  13 NSaved=  13.
 NSaved=13 IEnMin=13 EnMin= -617.947965824435     IErMin=13 ErrMin= 1.01D-03
 ErrMax= 1.01D-03  0.00D+00 EMaxC= 1.00D-01 BMatC= 8.43D-05 BMatP= 1.65D-04
 IDIUse=3 WtCom= 9.90D-01 WtEn= 1.01D-02
 Coeff-Com:  0.754D-02-0.119D-01-0.159D-02-0.153D-03-0.504D-02 0.826D-02
 Coeff-Com:  0.159D+00 0.341D+00 0.134D-01-0.135D+01-0.291D-01 0.708D+00
 Coeff-Com:  0.117D+01
 Coeff-En:   0.000D+00 0.000D+00 0.000D+00 0.000D+00 0.000D+00 0.000D+00
 Coeff-En:   0.000D+00 0.000D+00 0.000D+00 0.000D+00 0.000D+00 0.000D+00
 Coeff-En:   0.100D+01
 Coeff:      0.746D-02-0.118D-01-0.157D-02-0.152D-03-0.499D-02 0.817D-02
 Coeff:      0.157D+00 0.337D+00 0.133D-01-0.134D+01-0.288D-01 0.701D+00
 Coeff:      0.116D+01
 Gap=     0.119 Goal=   None    Shift=    0.000
 RMSDP=6.68D-04 MaxDP=1.07D-02 DE=-1.33D-03 OVMax= 6.53D-02

 Cycle  14  Pass 0  IDiag  1:
 RMSU=  3.88D-04    CP:  1.03D+00  1.83D+00  5.93D-01  1.86D-01  5.85D-01
                    CP:  5.56D-01  1.56D+00  2.77D+00  3.00D+00  3.00D+00
                    CP:  3.00D+00  3.00D+00  2.34D+00
 E= -617.949289271098     Delta-E=       -0.001323446663 Rises=F Damp=F
 DIIS: error= 7.70D-04 at cycle  14 NSaved=  14.
 NSaved=14 IEnMin=14 EnMin= -617.949289271098     IErMin=14 ErrMin= 7.70D-04
 ErrMax= 7.70D-04  0.00D+00 EMaxC= 1.00D-01 BMatC= 6.58D-05 BMatP= 8.43D-05
 IDIUse=3 WtCom= 9.92D-01 WtEn= 7.70D-03
 Coeff-Com:  0.543D-04-0.732D-03-0.391D-03-0.420D-03-0.925D-02-0.145D-02
 Coeff-Com:  0.137D+00 0.300D+00 0.113D+00-0.918D+00-0.415D+00 0.136D+00
 Coeff-Com:  0.112D+01 0.534D+00
 Coeff-En:   0.000D+00 0.000D+00 0.000D+00 0.000D+00 0.000D+00 0.000D+00
 Coeff-En:   0.000D+00 0.000D+00 0.000D+00 0.000D+00 0.000D+00 0.000D+00
 Coeff-En:   0.000D+00 0.100D+01
 Coeff:      0.539D-04-0.726D-03-0.388D-03-0.417D-03-0.918D-02-0.144D-02
 Coeff:      0.136D+00 0.297D+00 0.112D+00-0.911D+00-0.411D+00 0.135D+00
 Coeff:      0.112D+01 0.537D+00
 Gap=     0.120 Goal=   None    Shift=    0.000
 RMSDP=4.11D-04 MaxDP=5.68D-03 DE=-1.32D-03 OVMax= 4.02D-02

 Cycle  15  Pass 0  IDiag  1:
 RMSU=  9.41D-05    CP:  1.03D+00  1.84D+00  5.90D-01  1.90D-01  5.78D-01
                    CP:  5.51D-01  1.56D+00  2.94D+00  3.00D+00  3.00D+00
                    CP:  3.00D+00  3.00D+00  3.00D+00  1.63D+00
 E= -617.949932069496     Delta-E=       -0.000642798398 Rises=F Damp=F
 DIIS: error= 8.02D-04 at cycle  15 NSaved=  15.
 NSaved=15 IEnMin=15 EnMin= -617.949932069496     IErMin=14 ErrMin= 7.70D-04
 ErrMax= 8.02D-04  0.00D+00 EMaxC= 1.00D-01 BMatC= 2.50D-05 BMatP= 6.58D-05
 IDIUse=3 WtCom= 9.92D-01 WtEn= 7.70D-03
 Coeff-Com:  0.170D-02-0.310D-02 0.633D-03-0.115D-03-0.966D-03-0.163D-02
 Coeff-Com:  0.122D-01-0.654D-01 0.176D-01 0.255D+00-0.131D-01-0.220D+00
 Coeff-Com: -0.308D+00-0.101D+00 0.143D+01
 Coeff-En:   0.000D+00 0.000D+00 0.000D+00 0.000D+00 0.000D+00 0.000D+00
 Coeff-En:   0.000D+00 0.000D+00 0.000D+00 0.000D+00 0.000D+00 0.000D+00
 Coeff-En:   0.000D+00 0.000D+00 0.100D+01
 Coeff:      0.169D-02-0.307D-02 0.629D-03-0.114D-03-0.958D-03-0.162D-02
 Coeff:      0.121D-01-0.649D-01 0.175D-01 0.253D+00-0.130D-01-0.218D+00
 Coeff:     -0.305D+00-0.100D+00 0.142D+01
 Gap=     0.118 Goal=   None    Shift=    0.000
 RMSDP=3.83D-04 MaxDP=6.23D-03 DE=-6.43D-04 OVMax= 4.01D-02

 Cycle  16  Pass 0  IDiag  1:
 RMSU=  1.71D-04    CP:  1.02D+00  1.85D+00  5.91D-01  1.92D-01  5.69D-01
                    CP:  5.40D-01  1.56D+00  3.00D+00  3.00D+00  3.00D+00
                    CP:  3.00D+00  3.00D+00  3.00D+00  2.28D+00  3.00D+00
 E= -617.950447068270     Delta-E=       -0.000514998775 Rises=F Damp=F
 DIIS: error= 4.74D-04 at cycle  16 NSaved=  16.
 NSaved=16 IEnMin=16 EnMin= -617.950447068270     IErMin=16 ErrMin= 4.74D-04
 ErrMax= 4.74D-04  0.00D+00 EMaxC= 1.00D-01 BMatC= 1.59D-05 BMatP= 2.50D-05
 IDIUse=3 WtCom= 9.95D-01 WtEn= 4.74D-03
 Coeff-Com:  0.587D-02-0.858D-02-0.315D-03-0.254D-04 0.162D-02 0.200D-03
 Coeff-Com: -0.331D-01-0.125D+00-0.413D-01 0.579D+00-0.348D-01-0.938D-01
 Coeff-Com: -0.621D+00-0.455D+00 0.753D+00 0.107D+01
 Coeff-En:   0.000D+00 0.000D+00 0.000D+00 0.000D+00 0.000D+00 0.000D+00
 Coeff-En:   0.000D+00 0.000D+00 0.000D+00 0.000D+00 0.000D+00 0.000D+00
 Coeff-En:   0.000D+00 0.000D+00 0.000D+00 0.100D+01
 Coeff:      0.584D-02-0.854D-02-0.314D-03-0.253D-04 0.162D-02 0.199D-03
 Coeff:     -0.329D-01-0.124D+00-0.411D-01 0.576D+00-0.346D-01-0.934D-01
 Coeff:     -0.618D+00-0.453D+00 0.749D+00 0.107D+01
 Gap=     0.118 Goal=   None    Shift=    0.000
 RMSDP=4.04D-04 MaxDP=6.80D-03 DE=-5.15D-04 OVMax= 4.06D-02

 Cycle  17  Pass 0  IDiag  1:
 RMSU=  2.25D-04    CP:  1.02D+00  1.86D+00  5.88D-01  1.97D-01  5.59D-01
                    CP:  5.33D-01  1.55D+00  3.00D+00  3.00D+00  3.00D+00
                    CP:  3.00D+00  3.00D+00  3.00D+00  2.94D+00  3.00D+00
                    CP:  2.12D+00
 E= -617.950842382831     Delta-E=       -0.000395314561 Rises=F Damp=F
 DIIS: error= 5.05D-04 at cycle  17 NSaved=  17.
 NSaved=17 IEnMin=17 EnMin= -617.950842382831     IErMin=16 ErrMin= 4.74D-04
 ErrMax= 5.05D-04  0.00D+00 EMaxC= 1.00D-01 BMatC= 1.50D-05 BMatP= 1.59D-05
 IDIUse=3 WtCom= 9.95D-01 WtEn= 4.74D-03
 Coeff-Com:  0.698D-02-0.100D-01-0.134D-03 0.276D-04-0.146D-02-0.174D-02
 Coeff-Com:  0.283D-01 0.919D-01-0.798D-02-0.133D+00-0.246D+00 0.309D+00
 Coeff-Com:  0.151D+00-0.268D+00-0.697D+00 0.285D+00 0.149D+01
 Coeff-En:   0.000D+00 0.000D+00 0.000D+00 0.000D+00 0.000D+00 0.000D+00
 Coeff-En:   0.000D+00 0.000D+00 0.000D+00 0.000D+00 0.000D+00 0.000D+00
 Coeff-En:   0.000D+00 0.000D+00 0.000D+00 0.000D+00 0.100D+01
 Coeff:      0.695D-02-0.998D-02-0.133D-03 0.274D-04-0.145D-02-0.173D-02
 Coeff:      0.282D-01 0.915D-01-0.795D-02-0.133D+00-0.245D+00 0.308D+00
 Coeff:      0.150D+00-0.267D+00-0.693D+00 0.283D+00 0.149D+01
 Gap=     0.118 Goal=   None    Shift=    0.000
 RMSDP=5.15D-04 MaxDP=9.44D-03 DE=-3.95D-04 OVMax= 5.25D-02

 Cycle  18  Pass 0  IDiag  1:
 RMSU=  3.15D-04    CP:  1.02D+00  1.86D+00  5.86D-01  2.04D-01  5.42D-01
                    CP:  5.20D-01  1.51D+00  3.00D+00  3.00D+00  3.00D+00
                    CP:  3.00D+00  3.00D+00  3.00D+00  3.00D+00  3.00D+00
                    CP:  3.00D+00  2.30D+00
 E= -617.951157106975     Delta-E=       -0.000314724144 Rises=F Damp=F
 DIIS: error= 5.55D-04 at cycle  18 NSaved=  18.
 NSaved=18 IEnMin=18 EnMin= -617.951157106975     IErMin=16 ErrMin= 4.74D-04
 ErrMax= 5.55D-04  0.00D+00 EMaxC= 1.00D-01 BMatC= 2.11D-05 BMatP= 1.50D-05
 IDIUse=3 WtCom= 9.95D-01 WtEn= 4.74D-03
 Coeff-Com:  0.487D-02-0.715D-02-0.862D-04 0.680D-04-0.124D-02-0.167D-02
 Coeff-Com:  0.367D-01 0.688D-01-0.156D-01-0.170D+00-0.119D+00 0.337D+00
 Coeff-Com:  0.138D-01-0.245D+00-0.471D+00 0.438D+00 0.553D+00 0.579D+00
 Coeff-En:   0.000D+00 0.000D+00 0.000D+00 0.000D+00 0.000D+00 0.000D+00
 Coeff-En:   0.000D+00 0.000D+00 0.000D+00 0.000D+00 0.000D+00 0.000D+00
 Coeff-En:   0.000D+00 0.000D+00 0.000D+00 0.000D+00 0.000D+00 0.100D+01
 Coeff:      0.485D-02-0.711D-02-0.857D-04 0.677D-04-0.123D-02-0.166D-02
 Coeff:      0.365D-01 0.684D-01-0.155D-01-0.169D+00-0.118D+00 0.336D+00
 Coeff:      0.138D-01-0.244D+00-0.469D+00 0.435D+00 0.550D+00 0.581D+00
 Gap=     0.118 Goal=   None    Shift=    0.000
 RMSDP=7.08D-05 MaxDP=1.56D-03 DE=-3.15D-04 OVMax= 6.70D-03

 Cycle  19  Pass 0  IDiag  1:
 RMSU=  4.17D-05    CP:  1.02D+00  1.86D+00  5.88D-01  2.04D-01  5.41D-01
                    CP:  5.15D-01  1.51D+00  3.00D+00  3.00D+00  3.00D+00
                    CP:  3.00D+00  3.00D+00  3.00D+00  3.00D+00  3.00D+00
                    CP:  3.00D+00  2.40D+00  1.14D+00
 E= -617.951219589427     Delta-E=       -0.000062482452 Rises=F Damp=F
 DIIS: error= 3.48D-04 at cycle  19 NSaved=  19.
 NSaved=19 IEnMin=19 EnMin= -617.951219589427     IErMin=19 ErrMin= 3.48D-04
 ErrMax= 3.48D-04  0.00D+00 EMaxC= 1.00D-01 BMatC= 5.78D-06 BMatP= 1.50D-05
 IDIUse=3 WtCom= 9.97D-01 WtEn= 3.48D-03
 Coeff-Com: -0.687D-03 0.751D-03-0.155D-02-0.459D-05-0.235D-02-0.884D-03
 Coeff-Com:  0.230D-01 0.336D-01 0.173D-01-0.115D+00 0.877D-03 0.377D-01
 Coeff-Com:  0.636D-01 0.553D-01 0.529D-01 0.116D+00-0.121D+01-0.583D+00
 Coeff-Com:  0.252D+01
 Coeff-En:   0.000D+00 0.000D+00 0.000D+00 0.000D+00 0.000D+00 0.000D+00
 Coeff-En:   0.000D+00 0.000D+00 0.000D+00 0.000D+00 0.000D+00 0.000D+00
 Coeff-En:   0.000D+00 0.000D+00 0.000D+00 0.000D+00 0.000D+00 0.000D+00
 Coeff-En:   0.100D+01
 Coeff:     -0.685D-03 0.748D-03-0.154D-02-0.457D-05-0.234D-02-0.881D-03
 Coeff:      0.229D-01 0.335D-01 0.172D-01-0.115D+00 0.874D-03 0.376D-01
 Coeff:      0.634D-01 0.551D-01 0.527D-01 0.115D+00-0.121D+01-0.581D+00
 Coeff:      0.251D+01
 Gap=     0.116 Goal=   None    Shift=    0.000
 RMSDP=3.63D-04 MaxDP=8.04D-03 DE=-6.25D-05 OVMax= 3.58D-02

 Cycle  20  Pass 0  IDiag  1:
 RMSU=  8.89D-05    CP:  1.02D+00  1.86D+00  5.92D-01  2.07D-01  5.30D-01
                    CP:  4.97D-01  1.48D+00  3.00D+00  3.00D+00  3.00D+00
                    CP:  3.00D+00  3.00D+00  3.00D+00  3.00D+00  3.00D+00
                    CP:  3.00D+00  3.00D+00  1.94D+00  3.00D+00
 E= -617.951349920641     Delta-E=       -0.000130331214 Rises=F Damp=F
 DIIS: error= 8.97D-05 at cycle  20 NSaved=  20.
 NSaved=20 IEnMin=20 EnMin= -617.951349920641     IErMin=20 ErrMin= 8.97D-05
 ErrMax= 8.97D-05  0.00D+00 EMaxC= 1.00D-01 BMatC= 2.00D-06 BMatP= 5.78D-06
 IDIUse=1 WtCom= 1.00D+00 WtEn= 0.00D+00
 Coeff-Com: -0.842D-03 0.103D-02-0.102D-02-0.365D-04-0.178D-02-0.105D-02
 Coeff-Com:  0.108D-01 0.203D-01 0.128D-01-0.664D-01-0.691D-02-0.141D-01
 Coeff-Com:  0.814D-01 0.353D-01 0.566D-01-0.108D+00-0.433D+00 0.789D-01
 Coeff-Com:  0.589D+00 0.748D+00
 Coeff:     -0.842D-03 0.103D-02-0.102D-02-0.365D-04-0.178D-02-0.105D-02
 Coeff:      0.108D-01 0.203D-01 0.128D-01-0.664D-01-0.691D-02-0.141D-01
 Coeff:      0.814D-01 0.353D-01 0.566D-01-0.108D+00-0.433D+00 0.789D-01
 Coeff:      0.589D+00 0.748D+00
 Gap=     0.117 Goal=   None    Shift=    0.000
 RMSDP=7.98D-05 MaxDP=1.61D-03 DE=-1.30D-04 OVMax= 7.57D-03

 Cycle  21  Pass 0  IDiag  1:
 Restarting incremental Fock formation.
 E= -617.951355035154     Delta-E=       -0.000005114513 Rises=F Damp=F
 DIIS: error= 6.74D-05 at cycle  21 NSaved=  20.
 NSaved=20 IEnMin=20 EnMin= -617.951355035154     IErMin=20 ErrMin= 6.74D-05
 ErrMax= 6.74D-05  0.00D+00 EMaxC= 1.00D-01 BMatC= 5.09D-07 BMatP= 2.00D-06
 IDIUse=1 WtCom= 1.00D+00 WtEn= 0.00D+00
 Coeff-Com: -0.550D-03 0.641D-03-0.276D-03-0.479D-03-0.923D-03 0.421D-02
 Coeff-Com:  0.319D-02 0.360D-03-0.310D-01 0.308D-01-0.201D-02 0.329D-02
 Coeff-Com: -0.267D-01-0.380D-01-0.108D+00 0.621D+00 0.551D+00-0.153D+01
 Coeff-Com: -0.285D+00 0.181D+01
 Coeff:     -0.550D-03 0.641D-03-0.276D-03-0.479D-03-0.923D-03 0.421D-02
 Coeff:      0.319D-02 0.360D-03-0.310D-01 0.308D-01-0.201D-02 0.329D-02
 Coeff:     -0.267D-01-0.380D-01-0.108D+00 0.621D+00 0.551D+00-0.153D+01
 Coeff:     -0.285D+00 0.181D+01
 Gap=     0.116 Goal=   None    Shift=    0.000
 RMSDP=6.79D-05 MaxDP=1.48D-03 DE=-5.11D-06 OVMax= 5.52D-03

 Cycle  22  Pass 0  IDiag  1:
 RMSU=  6.79D-05    CP:  1.00D+00
 E= -617.951365797872     Delta-E=       -0.000010762718 Rises=F Damp=F
 DIIS: error= 6.41D-05 at cycle  22 NSaved=  20.
 NSaved=20 IEnMin=20 EnMin= -617.951365797872     IErMin=20 ErrMin= 6.41D-05
 ErrMax= 6.41D-05  0.00D+00 EMaxC= 1.00D-01 BMatC= 6.11D-07 BMatP= 5.09D-07
 IDIUse=1 WtCom= 1.00D+00 WtEn= 0.00D+00
 Coeff-Com: -0.512D-04 0.750D-04 0.576D-04-0.591D-03 0.493D-02 0.640D-02
 Coeff-Com: -0.304D-02-0.418D-01 0.360D-01 0.282D-01-0.718D-02-0.308D-01
 Coeff-Com: -0.107D+00-0.439D-01 0.600D+00 0.438D+00-0.124D+01-0.844D+00
 Coeff-Com:  0.120D+01 0.101D+01
 Coeff:     -0.512D-04 0.750D-04 0.576D-04-0.591D-03 0.493D-02 0.640D-02
 Coeff:     -0.304D-02-0.418D-01 0.360D-01 0.282D-01-0.718D-02-0.308D-01
 Coeff:     -0.107D+00-0.439D-01 0.600D+00 0.438D+00-0.124D+01-0.844D+00
 Coeff:      0.120D+01 0.101D+01
 Gap=     0.116 Goal=   None    Shift=    0.000
 RMSDP=5.24D-05 MaxDP=1.11D-03 DE=-1.08D-05 OVMax= 3.83D-03

 Cycle  23  Pass 0  IDiag  1:
 RMSU=  1.12D-05    CP:  1.00D+00  1.75D+00
 E= -617.951371561838     Delta-E=       -0.000005763966 Rises=F Damp=F
 DIIS: error= 2.75D-05 at cycle  23 NSaved=  20.
 NSaved=20 IEnMin=20 EnMin= -617.951371561838     IErMin=20 ErrMin= 2.75D-05
 ErrMax= 2.75D-05  0.00D+00 EMaxC= 1.00D-01 BMatC= 2.06D-07 BMatP= 5.09D-07
 IDIUse=1 WtCom= 1.00D+00 WtEn= 0.00D+00
 Coeff-Com:  0.482D-05-0.733D-04 0.118D-04 0.171D-02-0.186D-02-0.285D-02
 Coeff-Com: -0.247D-02 0.175D-01-0.440D-02-0.310D-02-0.901D-02 0.758D-01
 Coeff-Com:  0.496D-02-0.315D+00-0.331D-01 0.453D+00-0.182D+00-0.268D+00
 Coeff-Com:  0.162D+00 0.111D+01
 Coeff:      0.482D-05-0.733D-04 0.118D-04 0.171D-02-0.186D-02-0.285D-02
 Coeff:     -0.247D-02 0.175D-01-0.440D-02-0.310D-02-0.901D-02 0.758D-01
 Coeff:      0.496D-02-0.315D+00-0.331D-01 0.453D+00-0.182D+00-0.268D+00
 Coeff:      0.162D+00 0.111D+01
 Gap=     0.116 Goal=   None    Shift=    0.000
 RMSDP=3.70D-05 MaxDP=7.97D-04 DE=-5.76D-06 OVMax= 2.96D-03

 Cycle  24  Pass 0  IDiag  1:
 RMSU=  1.59D-05    CP:  1.00D+00  2.24D+00  1.59D+00
 E= -617.951373859562     Delta-E=       -0.000002297724 Rises=F Damp=F
 DIIS: error= 2.07D-05 at cycle  24 NSaved=  20.
 NSaved=20 IEnMin=20 EnMin= -617.951373859562     IErMin=20 ErrMin= 2.07D-05
 ErrMax= 2.07D-05  0.00D+00 EMaxC= 1.00D-01 BMatC= 8.14D-08 BMatP= 2.06D-07
 IDIUse=1 WtCom= 1.00D+00 WtEn= 0.00D+00
 Coeff-Com: -0.818D-04-0.132D-03-0.149D-02-0.455D-02-0.245D-02 0.312D-01
 Coeff-Com: -0.178D-01-0.122D-01-0.584D-02-0.179D-01 0.638D-01 0.210D-01
 Coeff-Com: -0.563D-01-0.142D+00 0.129D+00 0.652D-01-0.153D-01-0.101D+00
 Coeff-Com: -0.407D+00 0.147D+01
 Coeff:     -0.818D-04-0.132D-03-0.149D-02-0.455D-02-0.245D-02 0.312D-01
 Coeff:     -0.178D-01-0.122D-01-0.584D-02-0.179D-01 0.638D-01 0.210D-01
 Coeff:     -0.563D-01-0.142D+00 0.129D+00 0.652D-01-0.153D-01-0.101D+00
 Coeff:     -0.407D+00 0.147D+01
 Gap=     0.116 Goal=   None    Shift=    0.000
 RMSDP=1.94D-05 MaxDP=3.73D-04 DE=-2.30D-06 OVMax= 1.67D-03

 Cycle  25  Pass 0  IDiag  1:
 RMSU=  8.40D-06    CP:  1.00D+00  2.49D+00  1.86D+00  1.17D+00
 E= -617.951374687486     Delta-E=       -0.000000827924 Rises=F Damp=F
 DIIS: error= 1.12D-05 at cycle  25 NSaved=  20.
 NSaved=20 IEnMin=20 EnMin= -617.951374687486     IErMin=20 ErrMin= 1.12D-05
 ErrMax= 1.12D-05  0.00D+00 EMaxC= 1.00D-01 BMatC= 1.66D-08 BMatP= 8.14D-08
 IDIUse=1 WtCom= 1.00D+00 WtEn= 0.00D+00
 Coeff-Com: -0.121D-03 0.504D-03 0.272D-02-0.130D-02-0.255D-02-0.164D-04
 Coeff-Com:  0.729D-02-0.475D-02 0.145D-02-0.133D-01 0.169D-01-0.339D-01
 Coeff-Com: -0.867D-01 0.190D+00 0.491D-01-0.159D+00-0.749D-01-0.193D+00
 Coeff-Com:  0.475D-01 0.125D+01
 Coeff:     -0.121D-03 0.504D-03 0.272D-02-0.130D-02-0.255D-02-0.164D-04
 Coeff:      0.729D-02-0.475D-02 0.145D-02-0.133D-01 0.169D-01-0.339D-01
 Coeff:     -0.867D-01 0.190D+00 0.491D-01-0.159D+00-0.749D-01-0.193D+00
 Coeff:      0.475D-01 0.125D+01
 Gap=     0.116 Goal=   None    Shift=    0.000
 RMSDP=1.33D-05 MaxDP=1.88D-04 DE=-8.28D-07 OVMax= 1.07D-03

 Cycle  26  Pass 0  IDiag  1:
 RMSU=  4.96D-06    CP:  1.00D+00  2.58D+00  2.34D+00  9.06D-01  1.94D+00
 E= -617.951374943776     Delta-E=       -0.000000256290 Rises=F Damp=F
 DIIS: error= 9.32D-06 at cycle  26 NSaved=  20.
 NSaved=20 IEnMin=20 EnMin= -617.951374943776     IErMin=20 ErrMin= 9.32D-06
 ErrMax= 9.32D-06  0.00D+00 EMaxC= 1.00D-01 BMatC= 8.50D-09 BMatP= 1.66D-08
 IDIUse=1 WtCom= 1.00D+00 WtEn= 0.00D+00
 Coeff-Com:  0.370D-04-0.557D-03-0.158D-02-0.620D-03 0.272D-02 0.564D-03
 Coeff-Com: -0.247D-02 0.844D-02 0.796D-03-0.219D-01 0.103D-01 0.943D-01
 Coeff-Com: -0.116D+00-0.690D-01 0.116D+00 0.459D-01 0.186D+00-0.448D+00
 Coeff-Com: -0.688D+00 0.188D+01
 Coeff:      0.370D-04-0.557D-03-0.158D-02-0.620D-03 0.272D-02 0.564D-03
 Coeff:     -0.247D-02 0.844D-02 0.796D-03-0.219D-01 0.103D-01 0.943D-01
 Coeff:     -0.116D+00-0.690D-01 0.116D+00 0.459D-01 0.186D+00-0.448D+00
 Coeff:     -0.688D+00 0.188D+01
 Gap=     0.116 Goal=   None    Shift=    0.000
 RMSDP=1.07D-05 MaxDP=1.61D-04 DE=-2.56D-07 OVMax= 8.31D-04

 Cycle  27  Pass 0  IDiag  1:
 RMSU=  3.30D-06    CP:  1.00D+00  2.69D+00  2.69D+00  1.10D+00  2.53D+00
                    CP:  1.36D+00
 E= -617.951374916228     Delta-E=        0.000000027548 Rises=F Damp=F
 DIIS: error= 6.67D-06 at cycle  27 NSaved=  20.
 NSaved=20 IEnMin=19 EnMin= -617.951374943776     IErMin=20 ErrMin= 6.67D-06
 ErrMax= 6.67D-06  0.00D+00 EMaxC= 1.00D-01 BMatC= 8.66D-09 BMatP= 8.50D-09
 IDIUse=1 WtCom= 1.00D+00 WtEn= 0.00D+00
 Coeff-Com: -0.388D-03-0.388D-04 0.881D-03-0.191D-03-0.186D-02 0.102D-02
 Coeff-Com: -0.143D-02 0.535D-03-0.528D-02 0.435D-01 0.147D-01-0.955D-01
 Coeff-Com: -0.312D-01 0.102D+00 0.559D-01 0.430D-02-0.416D-01-0.496D+00
 Coeff-Com:  0.349D+00 0.110D+01
 Coeff:     -0.388D-03-0.388D-04 0.881D-03-0.191D-03-0.186D-02 0.102D-02
 Coeff:     -0.143D-02 0.535D-03-0.528D-02 0.435D-01 0.147D-01-0.955D-01
 Coeff:     -0.312D-01 0.102D+00 0.559D-01 0.430D-02-0.416D-01-0.496D+00
 Coeff:      0.349D+00 0.110D+01
 Gap=     0.116 Goal=   None    Shift=    0.000
 RMSDP=5.54D-06 MaxDP=7.18D-05 DE= 2.75D-08 OVMax= 3.51D-04

 Initial convergence to 1.0D-05 achieved.  Increase integral accuracy.
 Cycle  28  Pass 1  IDiag  1:
 E= -617.951399697128     Delta-E=       -0.000024780901 Rises=F Damp=F
 DIIS: error= 6.84D-06 at cycle   1 NSaved=   1.
 NSaved= 1 IEnMin= 1 EnMin= -617.951399697128     IErMin= 1 ErrMin= 6.84D-06
 ErrMax= 6.84D-06  0.00D+00 EMaxC= 1.00D-01 BMatC= 2.15D-08 BMatP= 2.15D-08
 IDIUse=1 WtCom= 1.00D+00 WtEn= 0.00D+00
 Coeff-Com:  0.100D+01
 Coeff:      0.100D+01
 Gap=     0.116 Goal=   None    Shift=    0.000
 RMSDP=5.54D-06 MaxDP=7.18D-05 DE=-2.48D-05 OVMax= 1.76D-04

 Cycle  29  Pass 1  IDiag  1:
 RMSU=  4.28D-06    CP:  1.00D+00
 E= -617.951399707940     Delta-E=       -0.000000010812 Rises=F Damp=F
 DIIS: error= 1.08D-05 at cycle   2 NSaved=   2.
 NSaved= 2 IEnMin= 2 EnMin= -617.951399707940     IErMin= 1 ErrMin= 6.84D-06
 ErrMax= 1.08D-05  0.00D+00 EMaxC= 1.00D-01 BMatC= 2.51D-08 BMatP= 2.15D-08
 IDIUse=1 WtCom= 1.00D+00 WtEn= 0.00D+00
 Coeff-Com:  0.532D+00 0.468D+00
 Coeff:      0.532D+00 0.468D+00
 Gap=     0.116 Goal=   None    Shift=    0.000
 RMSDP=2.50D-06 MaxDP=5.34D-05 DE=-1.08D-08 OVMax= 2.18D-04

 Cycle  30  Pass 1  IDiag  1:
 RMSU=  2.35D-06    CP:  1.00D+00  8.03D-01
 E= -617.951399722858     Delta-E=       -0.000000014918 Rises=F Damp=F
 DIIS: error= 9.93D-06 at cycle   3 NSaved=   3.
 NSaved= 3 IEnMin= 3 EnMin= -617.951399722858     IErMin= 1 ErrMin= 6.84D-06
 ErrMax= 9.93D-06  0.00D+00 EMaxC= 1.00D-01 BMatC= 1.45D-08 BMatP= 2.15D-08
 IDIUse=1 WtCom= 1.00D+00 WtEn= 0.00D+00
 Coeff-Com: -0.384D-01 0.438D+00 0.600D+00
 Coeff:     -0.384D-01 0.438D+00 0.600D+00
 Gap=     0.116 Goal=   None    Shift=    0.000
 RMSDP=1.32D-06 MaxDP=2.58D-05 DE=-1.49D-08 OVMax= 8.82D-05

 Cycle  31  Pass 1  IDiag  1:
 RMSU=  8.10D-07    CP:  1.00D+00  9.79D-01  6.98D-01
 E= -617.951399739437     Delta-E=       -0.000000016578 Rises=F Damp=F
 DIIS: error= 5.19D-06 at cycle   4 NSaved=   4.
 NSaved= 4 IEnMin= 4 EnMin= -617.951399739437     IErMin= 4 ErrMin= 5.19D-06
 ErrMax= 5.19D-06  0.00D+00 EMaxC= 1.00D-01 BMatC= 3.45D-09 BMatP= 1.45D-08
 IDIUse=1 WtCom= 1.00D+00 WtEn= 0.00D+00
 Coeff-Com: -0.832D-01 0.273D+00 0.440D+00 0.369D+00
 Coeff:     -0.832D-01 0.273D+00 0.440D+00 0.369D+00
 Gap=     0.116 Goal=   None    Shift=    0.000
 RMSDP=4.71D-07 MaxDP=1.29D-05 DE=-1.66D-08 OVMax= 2.02D-05

 Cycle  32  Pass 1  IDiag  1:
 RMSU=  4.47D-07    CP:  1.00D+00  9.98D-01  7.26D-01  8.66D-01
 E= -617.951399743160     Delta-E=       -0.000000003723 Rises=F Damp=F
 DIIS: error= 1.25D-06 at cycle   5 NSaved=   5.
 NSaved= 5 IEnMin= 5 EnMin= -617.951399743160     IErMin= 5 ErrMin= 1.25D-06
 ErrMax= 1.25D-06  0.00D+00 EMaxC= 1.00D-01 BMatC= 2.36D-10 BMatP= 3.45D-09
 IDIUse=1 WtCom= 1.00D+00 WtEn= 0.00D+00
 Coeff-Com: -0.340D-01 0.544D-01 0.119D+00 0.187D+00 0.673D+00
 Coeff:     -0.340D-01 0.544D-01 0.119D+00 0.187D+00 0.673D+00
 Gap=     0.116 Goal=   None    Shift=    0.000
 RMSDP=3.50D-07 MaxDP=5.20D-06 DE=-3.72D-09 OVMax= 2.15D-05

 Cycle  33  Pass 1  IDiag  1:
 RMSU=  1.66D-07    CP:  1.00D+00  1.02D+00  7.55D-01  1.16D+00  1.37D+00
 E= -617.951399744296     Delta-E=       -0.000000001136 Rises=F Damp=F
 DIIS: error= 1.03D-06 at cycle   6 NSaved=   6.
 NSaved= 6 IEnMin= 6 EnMin= -617.951399744296     IErMin= 6 ErrMin= 1.03D-06
 ErrMax= 1.03D-06  0.00D+00 EMaxC= 1.00D-01 BMatC= 1.08D-10 BMatP= 2.36D-10
 IDIUse=1 WtCom= 1.00D+00 WtEn= 0.00D+00
 Coeff-Com:  0.193D-01-0.105D+00-0.134D+00-0.529D-01 0.421D+00 0.852D+00
 Coeff:      0.193D-01-0.105D+00-0.134D+00-0.529D-01 0.421D+00 0.852D+00
 Gap=     0.116 Goal=   None    Shift=    0.000
 RMSDP=4.84D-07 MaxDP=7.71D-06 DE=-1.14D-09 OVMax= 2.86D-05

 Cycle  34  Pass 1  IDiag  1:
 RMSU=  1.48D-07    CP:  1.00D+00  1.03D+00  7.97D-01  1.55D+00  2.04D+00
                    CP:  1.60D+00
 E= -617.951399745548     Delta-E=       -0.000000001252 Rises=F Damp=F
 DIIS: error= 8.81D-07 at cycle   7 NSaved=   7.
 NSaved= 7 IEnMin= 7 EnMin= -617.951399745548     IErMin= 7 ErrMin= 8.81D-07
 ErrMax= 8.81D-07  0.00D+00 EMaxC= 1.00D-01 BMatC= 5.62D-11 BMatP= 1.08D-10
 IDIUse=1 WtCom= 1.00D+00 WtEn= 0.00D+00
 Coeff-Com:  0.196D-01-0.638D-01-0.101D+00-0.961D-01-0.702D-01 0.487D+00
 Coeff-Com:  0.824D+00
 Coeff:      0.196D-01-0.638D-01-0.101D+00-0.961D-01-0.702D-01 0.487D+00
 Coeff:      0.824D+00
 Gap=     0.116 Goal=   None    Shift=    0.000
 RMSDP=4.11D-07 MaxDP=6.59D-06 DE=-1.25D-09 OVMax= 2.80D-05

 Cycle  35  Pass 1  IDiag  1:
 RMSU=  1.04D-07    CP:  1.00D+00  1.05D+00  8.35D-01  1.85D+00  2.58D+00
                    CP:  2.42D+00  1.59D+00
 E= -617.951399746370     Delta-E=       -0.000000000823 Rises=F Damp=F
 DIIS: error= 6.57D-07 at cycle   8 NSaved=   8.
 NSaved= 8 IEnMin= 8 EnMin= -617.951399746370     IErMin= 8 ErrMin= 6.57D-07
 ErrMax= 6.57D-07  0.00D+00 EMaxC= 1.00D-01 BMatC= 3.86D-11 BMatP= 5.62D-11
 IDIUse=1 WtCom= 1.00D+00 WtEn= 0.00D+00
 Coeff-Com: -0.123D-01 0.888D-01 0.829D-01 0.396D-02-0.448D+00-0.564D+00
 Coeff-Com:  0.510D+00 0.134D+01
 Coeff:     -0.123D-01 0.888D-01 0.829D-01 0.396D-02-0.448D+00-0.564D+00
 Coeff:      0.510D+00 0.134D+01
 Gap=     0.116 Goal=   None    Shift=    0.000
 RMSDP=6.55D-07 MaxDP=1.12D-05 DE=-8.23D-10 OVMax= 4.47D-05

 Cycle  36  Pass 1  IDiag  1:
 RMSU=  2.57D-07    CP:  1.00D+00  1.07D+00  8.76D-01  2.32D+00  3.00D+00
                    CP:  3.00D+00  3.00D+00  1.96D+00
 E= -617.951399747302     Delta-E=       -0.000000000932 Rises=F Damp=F
 DIIS: error= 4.45D-07 at cycle   9 NSaved=   9.
 NSaved= 9 IEnMin= 9 EnMin= -617.951399747302     IErMin= 9 ErrMin= 4.45D-07
 ErrMax= 4.45D-07  0.00D+00 EMaxC= 1.00D-01 BMatC= 1.94D-11 BMatP= 3.86D-11
 IDIUse=1 WtCom= 1.00D+00 WtEn= 0.00D+00
 Coeff-Com: -0.128D-01 0.773D-01 0.747D-01 0.254D-01-0.277D+00-0.459D+00
 Coeff-Com:  0.183D+00 0.692D+00 0.696D+00
 Coeff:     -0.128D-01 0.773D-01 0.747D-01 0.254D-01-0.277D+00-0.459D+00
 Coeff:      0.183D+00 0.692D+00 0.696D+00
 Gap=     0.116 Goal=   None    Shift=    0.000
 RMSDP=2.70D-07 MaxDP=4.50D-06 DE=-9.32D-10 OVMax= 1.96D-05

 Cycle  37  Pass 1  IDiag  1:
 RMSU=  1.03D-07    CP:  1.00D+00  1.08D+00  8.92D-01  2.48D+00  3.00D+00
                    CP:  3.00D+00  3.00D+00  2.66D+00  1.74D+00
 E= -617.951399747569     Delta-E=       -0.000000000266 Rises=F Damp=F
 DIIS: error= 4.23D-07 at cycle  10 NSaved=  10.
 NSaved=10 IEnMin=10 EnMin= -617.951399747569     IErMin=10 ErrMin= 4.23D-07
 ErrMax= 4.23D-07  0.00D+00 EMaxC= 1.00D-01 BMatC= 1.80D-11 BMatP= 1.94D-11
 IDIUse=1 WtCom= 1.00D+00 WtEn= 0.00D+00
 Coeff-Com: -0.205D-02 0.180D-02-0.271D-02 0.254D-01 0.143D+00 0.790D-01
 Coeff-Com: -0.245D+00-0.757D+00 0.860D+00 0.898D+00
 Coeff:     -0.205D-02 0.180D-02-0.271D-02 0.254D-01 0.143D+00 0.790D-01
 Coeff:     -0.245D+00-0.757D+00 0.860D+00 0.898D+00
 Gap=     0.116 Goal=   None    Shift=    0.000
 RMSDP=3.78D-07 MaxDP=6.44D-06 DE=-2.66D-10 OVMax= 2.78D-05

 Cycle  38  Pass 1  IDiag  1:
 RMSU=  1.08D-07    CP:  1.00D+00  1.09D+00  9.06D-01  2.71D+00  3.00D+00
                    CP:  3.00D+00  3.00D+00  3.00D+00  2.80D+00  2.19D+00
 E= -617.951399747848     Delta-E=       -0.000000000280 Rises=F Damp=F
 DIIS: error= 1.78D-07 at cycle  11 NSaved=  11.
 NSaved=11 IEnMin=11 EnMin= -617.951399747848     IErMin=11 ErrMin= 1.78D-07
 ErrMax= 1.78D-07  0.00D+00 EMaxC= 1.00D-01 BMatC= 5.71D-12 BMatP= 1.80D-11
 IDIUse=1 WtCom= 1.00D+00 WtEn= 0.00D+00
 Coeff-Com:  0.450D-02-0.341D-01-0.381D-01-0.220D-03 0.213D+00 0.276D+00
 Coeff-Com: -0.185D+00-0.933D+00 0.266D+00 0.624D+00 0.807D+00
 Coeff:      0.450D-02-0.341D-01-0.381D-01-0.220D-03 0.213D+00 0.276D+00
 Coeff:     -0.185D+00-0.933D+00 0.266D+00 0.624D+00 0.807D+00
 Gap=     0.116 Goal=   None    Shift=    0.000
 RMSDP=2.59D-07 MaxDP=4.25D-06 DE=-2.80D-10 OVMax= 1.88D-05

 Cycle  39  Pass 1  IDiag  1:
 RMSU=  1.42D-07    CP:  1.00D+00  1.09D+00  9.20D-01  2.85D+00  3.00D+00
                    CP:  3.00D+00  3.00D+00  3.00D+00  3.00D+00  3.00D+00
                    CP:  1.81D+00
 E= -617.951399747967     Delta-E=       -0.000000000119 Rises=F Damp=F
 DIIS: error= 1.29D-07 at cycle  12 NSaved=  12.
 NSaved=12 IEnMin=12 EnMin= -617.951399747967     IErMin=12 ErrMin= 1.29D-07
 ErrMax= 1.29D-07  0.00D+00 EMaxC= 1.00D-01 BMatC= 1.94D-12 BMatP= 5.71D-12
 IDIUse=1 WtCom= 1.00D+00 WtEn= 0.00D+00
 Coeff-Com:  0.167D-02-0.398D-02-0.363D-02-0.230D-01-0.596D-01-0.925D-02
 Coeff-Com:  0.213D+00 0.225D+00-0.491D+00-0.359D+00 0.139D+00 0.137D+01
 Coeff:      0.167D-02-0.398D-02-0.363D-02-0.230D-01-0.596D-01-0.925D-02
 Coeff:      0.213D+00 0.225D+00-0.491D+00-0.359D+00 0.139D+00 0.137D+01
 Gap=     0.116 Goal=   None    Shift=    0.000
 RMSDP=1.75D-07 MaxDP=2.49D-06 DE=-1.19D-10 OVMax= 1.31D-05

 Cycle  40  Pass 1  IDiag  1:
 RMSU=  6.91D-08    CP:  1.00D+00  1.09D+00  9.25D-01  2.92D+00  3.00D+00
                    CP:  3.00D+00  3.00D+00  3.00D+00  3.00D+00  3.00D+00
                    CP:  2.56D+00  1.88D+00
 E= -617.951399748024     Delta-E=       -0.000000000057 Rises=F Damp=F
 DIIS: error= 9.07D-08 at cycle  13 NSaved=  13.
 NSaved=13 IEnMin=13 EnMin= -617.951399748024     IErMin=13 ErrMin= 9.07D-08
 ErrMax= 9.07D-08  0.00D+00 EMaxC= 1.00D-01 BMatC= 1.43D-12 BMatP= 1.94D-12
 IDIUse=1 WtCom= 1.00D+00 WtEn= 0.00D+00
 Coeff-Com: -0.732D-05 0.559D-02 0.789D-02-0.153D-01-0.827D-01-0.802D-01
 Coeff-Com:  0.200D+00 0.338D+00-0.427D+00-0.377D+00-0.899D-01 0.936D+00
 Coeff-Com:  0.586D+00
 Coeff:     -0.732D-05 0.559D-02 0.789D-02-0.153D-01-0.827D-01-0.802D-01
 Coeff:      0.200D+00 0.338D+00-0.427D+00-0.377D+00-0.899D-01 0.936D+00
 Coeff:      0.586D+00
 Gap=     0.116 Goal=   None    Shift=    0.000
 RMSDP=9.59D-08 MaxDP=1.39D-06 DE=-5.73D-11 OVMax= 7.19D-06

 Cycle  41  Pass 1  IDiag  1:
 RMSU=  1.41D-08    CP:  1.00D+00  1.10D+00  9.28D-01  2.96D+00  3.00D+00
                    CP:  3.00D+00  3.00D+00  3.00D+00  3.00D+00  3.00D+00
                    CP:  2.93D+00  2.37D+00  1.53D+00
 E= -617.951399748040     Delta-E=       -0.000000000016 Rises=F Damp=F
 DIIS: error= 8.61D-08 at cycle  14 NSaved=  14.
 NSaved=14 IEnMin=14 EnMin= -617.951399748040     IErMin=14 ErrMin= 8.61D-08
 ErrMax= 8.61D-08  0.00D+00 EMaxC= 1.00D-01 BMatC= 6.89D-13 BMatP= 1.43D-12
 IDIUse=1 WtCom= 1.00D+00 WtEn= 0.00D+00
 Coeff-Com: -0.114D-02 0.683D-02 0.842D-02 0.227D-02-0.203D-01-0.753D-01
 Coeff-Com:  0.427D-01 0.960D-01 0.158D-01 0.112D-01-0.162D+00-0.274D+00
 Coeff-Com:  0.342D+00 0.101D+01
 Coeff:     -0.114D-02 0.683D-02 0.842D-02 0.227D-02-0.203D-01-0.753D-01
 Coeff:      0.427D-01 0.960D-01 0.158D-01 0.112D-01-0.162D+00-0.274D+00
 Coeff:      0.342D+00 0.101D+01
 Gap=     0.116 Goal=   None    Shift=    0.000
 RMSDP=5.44D-08 MaxDP=1.02D-06 DE=-1.59D-11 OVMax= 4.14D-06

 Cycle  42  Pass 1  IDiag  1:
 RMSU=  3.14D-08    CP:  1.00D+00  1.10D+00  9.28D-01  2.97D+00  3.00D+00
                    CP:  3.00D+00  3.00D+00  3.00D+00  3.00D+00  3.00D+00
                    CP:  3.00D+00  2.57D+00  1.94D+00  1.53D+00
 E= -617.951399748054     Delta-E=       -0.000000000014 Rises=F Damp=F
 DIIS: error= 6.96D-08 at cycle  15 NSaved=  15.
 NSaved=15 IEnMin=15 EnMin= -617.951399748054     IErMin=15 ErrMin= 6.96D-08
 ErrMax= 6.96D-08  0.00D+00 EMaxC= 1.00D-01 BMatC= 4.50D-13 BMatP= 6.89D-13
 IDIUse=1 WtCom= 1.00D+00 WtEn= 0.00D+00
 Coeff-Com: -0.539D-03 0.735D-03 0.147D-02 0.677D-02 0.325D-01-0.228D-01
 Coeff-Com: -0.393D-01-0.975D-01 0.162D+00 0.180D+00-0.718D-01-0.508D+00
 Coeff-Com: -0.911D-01 0.497D+00 0.951D+00
 Coeff:     -0.539D-03 0.735D-03 0.147D-02 0.677D-02 0.325D-01-0.228D-01
 Coeff:     -0.393D-01-0.975D-01 0.162D+00 0.180D+00-0.718D-01-0.508D+00
 Coeff:     -0.911D-01 0.497D+00 0.951D+00
 Gap=     0.116 Goal=   None    Shift=    0.000
 RMSDP=4.92D-08 MaxDP=9.55D-07 DE=-1.41D-11 OVMax= 4.07D-06

 Cycle  43  Pass 1  IDiag  1:
 RMSU=  8.60D-09    CP:  1.00D+00  1.10D+00  9.28D-01  2.98D+00  3.00D+00
                    CP:  3.00D+00  3.00D+00  3.00D+00  3.00D+00  3.00D+00
                    CP:  3.00D+00  2.73D+00  2.29D+00  2.33D+00  2.02D+00
 E= -617.951399748065     Delta-E=       -0.000000000011 Rises=F Damp=F
 DIIS: error= 6.35D-08 at cycle  16 NSaved=  16.
 NSaved=16 IEnMin=16 EnMin= -617.951399748065     IErMin=16 ErrMin= 6.35D-08
 ErrMax= 6.35D-08  0.00D+00 EMaxC= 1.00D-01 BMatC= 3.28D-13 BMatP= 4.50D-13
 IDIUse=1 WtCom= 1.00D+00 WtEn= 0.00D+00
 Coeff-Com:  0.685D-03-0.554D-02-0.504D-02-0.365D-03 0.391D-01 0.235D-01
 Coeff-Com: -0.207D-01-0.123D+00 0.275D-01 0.839D-01 0.524D-01 0.105D+00
 Coeff-Com: -0.276D+00-0.692D+00 0.392D+00 0.140D+01
 Coeff:      0.685D-03-0.554D-02-0.504D-02-0.365D-03 0.391D-01 0.235D-01
 Coeff:     -0.207D-01-0.123D+00 0.275D-01 0.839D-01 0.524D-01 0.105D+00
 Coeff:     -0.276D+00-0.692D+00 0.392D+00 0.140D+01
 Gap=     0.116 Goal=   None    Shift=    0.000
 RMSDP=6.19D-08 MaxDP=1.22D-06 DE=-1.11D-11 OVMax= 5.61D-06

 Cycle  44  Pass 1  IDiag  1:
 RMSU=  1.82D-08    CP:  1.00D+00  1.10D+00  9.28D-01  2.98D+00  3.00D+00
                    CP:  3.00D+00  3.00D+00  3.00D+00  3.00D+00  3.00D+00
                    CP:  3.00D+00  2.91D+00  2.71D+00  3.00D+00  3.00D+00
                    CP:  1.99D+00
 E= -617.951399748076     Delta-E=       -0.000000000011 Rises=F Damp=F
 DIIS: error= 4.66D-08 at cycle  17 NSaved=  17.
 NSaved=17 IEnMin=17 EnMin= -617.951399748076     IErMin=17 ErrMin= 4.66D-08
 ErrMax= 4.66D-08  0.00D+00 EMaxC= 1.00D-01 BMatC= 1.81D-13 BMatP= 3.28D-13
 IDIUse=1 WtCom= 1.00D+00 WtEn= 0.00D+00
 Coeff-Com:  0.776D-03-0.392D-02-0.343D-02-0.501D-02 0.460D-02 0.144D-01
 Coeff-Com:  0.318D-01-0.425D-02-0.905D-01-0.627D-01 0.164D-01 0.419D+00
 Coeff-Com: -0.306D-02-0.747D+00-0.436D+00 0.509D+00 0.136D+01
 Coeff:      0.776D-03-0.392D-02-0.343D-02-0.501D-02 0.460D-02 0.144D-01
 Coeff:      0.318D-01-0.425D-02-0.905D-01-0.627D-01 0.164D-01 0.419D+00
 Coeff:     -0.306D-02-0.747D+00-0.436D+00 0.509D+00 0.136D+01
 Gap=     0.116 Goal=   None    Shift=    0.000
 RMSDP=6.53D-08 MaxDP=1.29D-06 DE=-1.11D-11 OVMax= 6.44D-06

 Cycle  45  Pass 1  IDiag  1:
 RMSU=  2.92D-08    CP:  1.00D+00  1.10D+00  9.26D-01  2.99D+00  3.00D+00
                    CP:  3.00D+00  3.00D+00  3.00D+00  3.00D+00  3.00D+00
                    CP:  3.00D+00  3.00D+00  3.00D+00  3.00D+00  3.00D+00
                    CP:  3.00D+00  3.00D+00
 E= -617.951399748084     Delta-E=       -0.000000000008 Rises=F Damp=F
 DIIS: error= 3.49D-08 at cycle  18 NSaved=  18.
 NSaved=18 IEnMin=18 EnMin= -617.951399748084     IErMin=18 ErrMin= 3.49D-08
 ErrMax= 3.49D-08  0.00D+00 EMaxC= 1.00D-01 BMatC= 1.00D-13 BMatP= 1.81D-13
 IDIUse=1 WtCom= 1.00D+00 WtEn= 0.00D+00
 Coeff-Com: -0.749D-04 0.119D-02 0.180D-02-0.120D-02-0.129D-01-0.127D-01
 Coeff-Com:  0.225D-01 0.451D-01-0.314D-01-0.378D-01-0.725D-01 0.773D-01
 Coeff-Com:  0.254D+00 0.676D-01-0.237D+00-0.778D+00 0.437D+00 0.128D+01
 Coeff:     -0.749D-04 0.119D-02 0.180D-02-0.120D-02-0.129D-01-0.127D-01
 Coeff:      0.225D-01 0.451D-01-0.314D-01-0.378D-01-0.725D-01 0.773D-01
 Coeff:      0.254D+00 0.676D-01-0.237D+00-0.778D+00 0.437D+00 0.128D+01
 Gap=     0.116 Goal=   None    Shift=    0.000
 RMSDP=4.65D-08 MaxDP=9.10D-07 DE=-7.50D-12 OVMax= 4.76D-06

 Cycle  46  Pass 1  IDiag  1:
 RMSU=  3.06D-08    CP:  1.00D+00  1.10D+00  9.26D-01  2.99D+00  3.00D+00
                    CP:  3.00D+00  3.00D+00  3.00D+00  3.00D+00  3.00D+00
                    CP:  3.00D+00  3.00D+00  3.00D+00  3.00D+00  3.00D+00
                    CP:  3.00D+00  3.00D+00  2.19D+00
 E= -617.951399748086     Delta-E=       -0.000000000002 Rises=F Damp=F
 DIIS: error= 1.71D-08 at cycle  19 NSaved=  19.
 NSaved=19 IEnMin=19 EnMin= -617.951399748086     IErMin=19 ErrMin= 1.71D-08
 ErrMax= 1.71D-08  0.00D+00 EMaxC= 1.00D-01 BMatC= 4.41D-14 BMatP= 1.00D-13
 IDIUse=1 WtCom= 1.00D+00 WtEn= 0.00D+00
 Coeff-Com: -0.427D-03 0.261D-02 0.235D-02 0.237D-02-0.411D-02-0.166D-01
 Coeff-Com: -0.795D-02 0.115D-01 0.556D-01 0.371D-01-0.757D-01-0.252D+00
 Coeff-Com:  0.194D+00 0.418D+00 0.241D+00-0.780D+00-0.493D+00 0.456D+00
 Coeff-Com:  0.121D+01
 Coeff:     -0.427D-03 0.261D-02 0.235D-02 0.237D-02-0.411D-02-0.166D-01
 Coeff:     -0.795D-02 0.115D-01 0.556D-01 0.371D-01-0.757D-01-0.252D+00
 Coeff:      0.194D+00 0.418D+00 0.241D+00-0.780D+00-0.493D+00 0.456D+00
 Coeff:      0.121D+01
 Gap=     0.116 Goal=   None    Shift=    0.000
 RMSDP=3.72D-08 MaxDP=7.21D-07 DE=-2.05D-12 OVMax= 3.85D-06

 Cycle  47  Pass 1  IDiag  1:
 RMSU=  5.82D-09    CP:  1.00D+00  1.10D+00  9.25D-01  2.99D+00  3.00D+00
                    CP:  3.00D+00  3.00D+00  3.00D+00  3.00D+00  3.00D+00
                    CP:  3.00D+00  3.00D+00  3.00D+00  3.00D+00  3.00D+00
                    CP:  3.00D+00  3.00D+00  3.00D+00  1.81D+00
 E= -617.951399748086     Delta-E=        0.000000000000 Rises=F Damp=F
 DIIS: error= 1.09D-08 at cycle  20 NSaved=  20.
 NSaved=20 IEnMin=19 EnMin= -617.951399748086     IErMin=20 ErrMin= 1.09D-08
 ErrMax= 1.09D-08  0.00D+00 EMaxC= 1.00D-01 BMatC= 2.00D-14 BMatP= 4.41D-14
 IDIUse=1 WtCom= 1.00D+00 WtEn= 0.00D+00
 Large coefficients: NSaved= 20 BigCof=    0.00 CofMax=   10.00 Det=-4.92D-15
 Inversion failed.  Reducing to 19 matrices.
 Large coefficients: NSaved= 19 BigCof=    0.00 CofMax=   10.00 Det=-5.29D-15
 Inversion failed.  Reducing to 18 matrices.
 Large coefficients: NSaved= 18 BigCof=    0.00 CofMax=   10.00 Det=-5.86D-15
 Inversion failed.  Reducing to 17 matrices.
 Large coefficients: NSaved= 17 BigCof=    0.00 CofMax=   10.00 Det=-5.91D-15
 Inversion failed.  Reducing to 16 matrices.
 Large coefficients: NSaved= 16 BigCof=    0.00 CofMax=   10.00 Det=-5.96D-15
 Inversion failed.  Reducing to 15 matrices.
 Coeff-Com:  0.902D-04 0.370D-02-0.299D-02-0.619D-02-0.139D-03 0.191D-02
 Coeff-Com: -0.195D-01 0.313D-01-0.219D-01 0.959D-01-0.326D-01-0.292D-01
 Coeff-Com: -0.398D+00 0.235D+00 0.114D+01
 Coeff:      0.902D-04 0.370D-02-0.299D-02-0.619D-02-0.139D-03 0.191D-02
 Coeff:     -0.195D-01 0.313D-01-0.219D-01 0.959D-01-0.326D-01-0.292D-01
 Coeff:     -0.398D+00 0.235D+00 0.114D+01
 Gap=     0.116 Goal=   None    Shift=    0.000
 RMSDP=2.00D-08 MaxDP=3.88D-07 DE= 0.00D+00 OVMax= 1.99D-06

 Cycle  48  Pass 1  IDiag  1:
 Restarting incremental Fock formation.
 E= -617.951399748085     Delta-E=        0.000000000001 Rises=F Damp=F
 DIIS: error= 7.70D-09 at cycle  21 NSaved=  16.
 NSaved=16 IEnMin=14 EnMin= -617.951399748086     IErMin=16 ErrMin= 7.70D-09
 ErrMax= 7.70D-09  0.00D+00 EMaxC= 1.00D-01 BMatC= 1.42D-14 BMatP= 2.00D-14
 IDIUse=1 WtCom= 1.00D+00 WtEn= 0.00D+00
 Large coefficients: NSaved= 16 BigCof=    0.00 CofMax=   10.00 Det=-7.40D-15
 Inversion failed.  Reducing to 15 matrices.
 Coeff-Com:  0.267D-02-0.482D-02-0.636D-02 0.162D-02 0.275D-01 0.214D-01
 Coeff-Com: -0.609D-01-0.142D+00 0.901D-01 0.301D+00 0.630D-01-0.671D+00
 Coeff-Com: -0.198D+00 0.894D+00 0.682D+00
 Coeff:      0.267D-02-0.482D-02-0.636D-02 0.162D-02 0.275D-01 0.214D-01
 Coeff:     -0.609D-01-0.142D+00 0.901D-01 0.301D+00 0.630D-01-0.671D+00
 Coeff:     -0.198D+00 0.894D+00 0.682D+00
 Gap=     0.116 Goal=   None    Shift=    0.000
 RMSDP=1.15D-08 MaxDP=1.39D-07 DE= 6.82D-13 OVMax= 1.08D-06

 Cycle  49  Pass 1  IDiag  1:
 RMSU=  1.15D-08    CP:  1.00D+00
 E= -617.951399748089     Delta-E=       -0.000000000004 Rises=F Damp=F
 DIIS: error= 5.66D-09 at cycle  22 NSaved=  16.
 NSaved=16 IEnMin=16 EnMin= -617.951399748089     IErMin=16 ErrMin= 5.66D-09
 ErrMax= 5.66D-09  0.00D+00 EMaxC= 1.00D-01 BMatC= 3.84D-15 BMatP= 1.42D-14
 IDIUse=1 WtCom= 1.00D+00 WtEn= 0.00D+00
 Large coefficients: NSaved= 16 BigCof=    0.00 CofMax=   10.00 Det=-1.81D-15
 Inversion failed.  Reducing to 15 matrices.
 Coeff-Com: -0.374D-03-0.191D-02-0.125D-02 0.112D-01 0.112D-01-0.219D-01
 Coeff-Com: -0.440D-01-0.175D-01 0.551D-01 0.111D+00-0.463D-01-0.229D+00
 Coeff-Com: -0.156D+00 0.357D+00 0.973D+00
 Coeff:     -0.374D-03-0.191D-02-0.125D-02 0.112D-01 0.112D-01-0.219D-01
 Coeff:     -0.440D-01-0.175D-01 0.551D-01 0.111D+00-0.463D-01-0.229D+00
 Coeff:     -0.156D+00 0.357D+00 0.973D+00
 Gap=     0.116 Goal=   None    Shift=    0.000
 RMSDP=7.97D-09 MaxDP=1.49D-07 DE=-3.87D-12 OVMax= 8.14D-07

 SCF Done:  E(RwB97XD) =  -617.951399748     A.U. after   49 cycles
            NFock= 49  Conv=0.80D-08     -V/T= 2.0059
 KE= 6.143330611842D+02 PE=-2.659912692718D+03 EE= 7.964557558505D+02
 Leave Link  502 at Wed Jan  5 16:37:50 2022, MaxMem=   402653184 cpu:            2447.5 elap:             420.5
 (Enter /work/01114/jfonner/frontera/gaussian/16rC.01/g16/l601.exe)
 Copying SCF densities to generalized density rwf, IOpCl= 0 IROHF=0.

 **********************************************************************

            Population analysis using the SCF Density.

 **********************************************************************

 Orbital symmetries:
       Occupied  (A) (A) (A) (A) (A) (A) (A) (A) (A) (A) (A) (A)
                 (A) (A) (A) (A) (A) (A) (A) (A) (A) (A) (A) (A)
                 (A) (A) (A) (A) (A) (A) (A) (A) (A) (A) (A) (A)
                 (A) (A) (A) (A) (A) (A)
       Virtual   (A) (A) (A) (A) (A) (A) (A) (A) (A) (A) (A) (A)
                 (A) (A) (A) (A) (A) (A) (A) (A) (A) (A) (A) (A)
                 (A) (A) (A) (A) (A) (A) (A) (A) (A) (A) (A) (A)
                 (A) (A) (A) (A) (A) (A) (A) (A) (A) (A) (A) (A)
                 (A) (A) (A) (A) (A) (A) (A) (A) (A) (A) (A) (A)
                 (A) (A) (A) (A) (A) (A) (A) (A) (A) (A) (A) (A)
                 (A) (A) (A) (A) (A) (A) (A)
 The electronic state is 1-A.
 Alpha  occ. eigenvalues --  -19.87292 -19.84555 -15.12630 -15.08448 -15.05014
 Alpha  occ. eigenvalues --  -11.06590 -11.05999 -11.02670 -11.00656 -10.97830
 Alpha  occ. eigenvalues --  -10.96326 -10.94107 -10.92480  -1.77913  -1.75352
 Alpha  occ. eigenvalues --   -1.61748  -1.58286  -1.52876  -1.48188  -1.41906
 Alpha  occ. eigenvalues --   -1.35267  -1.31876  -1.28260  -1.19404  -1.18796
 Alpha  occ. eigenvalues --   -1.10714  -1.10531  -1.09232  -1.08360  -1.08294
 Alpha  occ. eigenvalues --   -1.04720  -1.02241  -1.01171  -0.98697  -0.97337
 Alpha  occ. eigenvalues --   -0.95826  -0.94643  -0.92145  -0.90645  -0.89888
 Alpha  occ. eigenvalues --   -0.88583  -0.84057
 Alpha virt. eigenvalues --   -0.72427  -0.64918  -0.63696  -0.62362  -0.59962
 Alpha virt. eigenvalues --   -0.57111  -0.57063  -0.54037  -0.50719  -0.44064
 Alpha virt. eigenvalues --   -0.40257  -0.31373  -0.25595  -0.23882  -0.22851
 Alpha virt. eigenvalues --   -0.21761  -0.21386  -0.20674  -0.19204  -0.17986
 Alpha virt. eigenvalues --   -0.16494  -0.12447  -0.11243  -0.04308  -0.01232
 Alpha virt. eigenvalues --    0.04179   0.05079   0.06354   0.08087   0.09812
 Alpha virt. eigenvalues --    0.11755   0.13072   0.14306   0.14960   0.15385
 Alpha virt. eigenvalues --    0.16027   0.16434   0.17143   0.18255   0.19162
 Alpha virt. eigenvalues --    0.20939   0.22854   0.24134   0.24716   0.25486
 Alpha virt. eigenvalues --    0.25673   0.29340   0.30755   0.31781   0.34014
 Alpha virt. eigenvalues --    0.35934   0.37475   0.39070   0.40541   0.42815
 Alpha virt. eigenvalues --    0.47423   0.48596   0.49574   0.52382   0.53540
 Alpha virt. eigenvalues --    0.54519   0.57115   0.58571   0.62197   0.63297
 Alpha virt. eigenvalues --    0.63874   0.68169   0.69855   0.72248   0.74260
 Alpha virt. eigenvalues --    0.76459   0.79958   0.88787   0.92581   1.01321
 Alpha virt. eigenvalues --    1.14533   1.17735   1.45960   1.52723
          Condensed to atoms (all electrons):
               1          2          3          4          5          6
     1  N    6.513455   0.226451  -0.007919   0.000002   0.002968  -0.000085
     2  C    0.226451   5.283066   0.231835  -0.082035  -0.127389   0.008095
     3  C   -0.007919   0.231835   4.981962   0.380237   0.075735  -0.038048
     4  O    0.000002  -0.082035   0.380237   7.939235  -0.147698   0.001327
     5  N    0.002968  -0.127389   0.075735  -0.147698   7.286394   0.241421
     6  C   -0.000085   0.008095  -0.038048   0.001327   0.241421   5.527159
     7  C    0.000000   0.000092   0.007599  -0.000402  -0.078717   0.097523
     8  O   -0.000000   0.000009   0.000353  -0.000008   0.002542  -0.107898
     9  N    0.000000   0.000016   0.000617   0.000139   0.000246  -0.190663
    10  C   -0.000000  -0.000000  -0.000008  -0.000001  -0.000151   0.005986
    11  C    0.000005  -0.000176  -0.001593   0.001035  -0.068781   0.226212
    12  C   -0.000000  -0.000001  -0.000086  -0.000013   0.001813  -0.014410
    13  C    0.000002   0.000077   0.002682   0.001865  -0.005918  -0.002034
    14  H    0.000000   0.000000   0.000000   0.000000  -0.000003  -0.000120
    15  H   -0.000000  -0.000000  -0.000001  -0.000000   0.000017  -0.000243
               7          8          9         10         11         12
     1  N    0.000000  -0.000000   0.000000  -0.000000   0.000005  -0.000000
     2  C    0.000092   0.000009   0.000016  -0.000000  -0.000176  -0.000001
     3  C    0.007599   0.000353   0.000617  -0.000008  -0.001593  -0.000086
     4  O   -0.000402  -0.000008   0.000139  -0.000001   0.001035  -0.000013
     5  N   -0.078717   0.002542   0.000246  -0.000151  -0.068781   0.001813
     6  C    0.097523  -0.107898  -0.190663   0.005986   0.226212  -0.014410
     7  C    5.085028   0.435359   0.190985  -0.049204  -0.077075   0.003709
     8  O    0.435359   7.923643  -0.148726  -0.007967   0.002034  -0.002155
     9  N    0.190985  -0.148726   7.182943   0.267912  -0.000274   0.013466
    10  C   -0.049204  -0.007967   0.267912   4.988622  -0.000351  -0.000677
    11  C   -0.077075   0.002034  -0.000274  -0.000351   6.265345  -0.041199
    12  C    0.003709  -0.002155   0.013466  -0.000677  -0.041199   5.402656
    13  C    0.000236  -0.000077  -0.000132   0.000002  -0.051317  -0.006126
    14  H    0.002244   0.000426  -0.036362   0.343992   0.000017  -0.000119
    15  H   -0.001045  -0.000079  -0.034480   0.342515  -0.000003   0.000021
              13         14         15
     1  N    0.000002   0.000000  -0.000000
     2  C    0.000077   0.000000  -0.000000
     3  C    0.002682   0.000000  -0.000001
     4  O    0.001865   0.000000  -0.000000
     5  N   -0.005918  -0.000003   0.000017
     6  C   -0.002034  -0.000120  -0.000243
     7  C    0.000236   0.002244  -0.001045
     8  O   -0.000077   0.000426  -0.000079
     9  N   -0.000132  -0.036362  -0.034480
    10  C    0.000002   0.343992   0.342515
    11  C   -0.051317   0.000017  -0.000003
    12  C   -0.006126  -0.000119   0.000021
    13  C    5.423103  -0.000000  -0.000000
    14  H   -0.000000   0.335301  -0.020555
    15  H   -0.000000  -0.020555   0.327098
 Mulliken charges:
               1
     1  N    0.265121
     2  C    0.459960
     3  C    0.366634
     4  O   -0.093682
     5  N   -0.182480
     6  C    0.245777
     7  C    0.383668
     8  O   -0.097456
     9  N   -0.245687
    10  C    0.109331
    11  C   -0.253877
    12  C    0.643119
    13  C    0.637637
    14  H    0.375179
    15  H    0.386755
 Sum of Mulliken charges =   3.00000
 Mulliken charges with hydrogens summed into heavy atoms:
               1
     1  N    0.265121
     2  C    0.459960
     3  C    0.366634
     4  O   -0.093682
     5  N   -0.182480
     6  C    0.245777
     7  C    0.383668
     8  O   -0.097456
     9  N   -0.245687
    10  C    0.871266
    11  C   -0.253877
    12  C    0.643119
    13  C    0.637637
 Electronic spatial extent (au):  <R**2>=           2369.3756
 Charge=              3.0000 electrons
 Dipole moment (field-independent basis, Debye):
    X=              5.0541    Y=              2.9349    Z=             -1.2981  Tot=              5.9868
 Quadrupole moment (field-independent basis, Debye-Ang):
   XX=             42.4830   YY=            -17.5903   ZZ=            -64.8638
   XY=             -3.6580   XZ=            -13.5638   YZ=              5.7378
 Traceless Quadrupole moment (field-independent basis, Debye-Ang):
   XX=             55.8067   YY=             -4.2666   ZZ=            -51.5401
   XY=             -3.6580   XZ=            -13.5638   YZ=              5.7378
 Octapole moment (field-independent basis, Debye-Ang**2):
  XXX=             28.5643  YYY=             44.9049  ZZZ=             -4.8883  XYY=             63.9162
  XXY=           -110.0969  XXZ=            -21.9235  XZZ=              4.6324  YZZ=             -8.4897
  YYZ=             -6.9822  XYZ=             21.8046
 Hexadecapole moment (field-independent basis, Debye-Ang**3):
 XXXX=           -604.9258 YYYY=           -415.7206 ZZZZ=           -233.4693 XXXY=           -166.3368
 XXXZ=           -186.6308 YYYX=            -44.7079 YYYZ=             36.9837 ZZZX=             -8.0224
 ZZZY=              4.7737 XXYY=           -241.0849 XXZZ=           -337.1407 YYZZ=           -146.5080
 XXYZ=             56.8085 YYXZ=            -35.9241 ZZXY=            -19.0389
 N-N= 6.311724759354D+02 E-N=-2.659912693148D+03  KE= 6.143330611842D+02
 No NMR shielding tensors so no spin-rotation constants.
 Leave Link  601 at Wed Jan  5 16:37:58 2022, MaxMem=   402653184 cpu:              39.4 elap:               7.8
 (Enter /work/01114/jfonner/frontera/gaussian/16rC.01/g16/l9999.exe)
 Unable to Open any file for archive entry.
 1\1\GINC-C202-005\SP\RwB97XD\6-31G\C8H2N3O2(3+)\SA748948\05-Jan-2022\0
 \\#p int=acc2e=12 wb97xd/6-31g\\Atom number=15\\3,1\N,0,-6.815,-0.668,
 1.607\C,0,-5.714,0.002,2.373\C,0,-4.357,-0.673,2.588\O,0,-4.212,-1.87,
 2.492\N,0,-3.381,0.125,2.953\C,0,-2.062,-0.39,3.274\C,0,-1.636,0.175,4
 .6\O,0,-1.744,1.356,4.862\N,0,-1.095,-0.7,5.415\C,0,-0.572,-0.311,6.66
 9\C,0,-0.993,-0.045,2.197\C,0,0.39,-0.488,2.64\C,0,-1.378,-0.662,0.897
 \H,0,0.4234133,-0.69379704,6.75571093\H,0,-1.15902642,-0.7322037,7.458
 23218\\Version=ES64L-G16RevC.01\State=1-A\HF=-617.9513997\RMSD=7.965e-
 09\Dipole=2.3097136,-0.419526,0.1926834\Quadrupole=25.7905351,-39.9719
 01,14.181366,-0.9421362,22.2250633,-0.6207896\PG=C01 [X(C8H2N3O2)]\\@
 The archive entry for this job was punched.


 IF YOU WISH TO UNDERSTAND THE FRAGRANCE OF THE ROSE, 
 OR THE TENACITY OF THE OAK; 
 IF YOU ARE NOT SATISFIED UNTIL YOU KNOW THE SECRET PATHS 
 BY WHICH THE SUNSHINE AND THE AIR ACHIEVE THESE WONDERS; 
 IF YOU WISH TO SEE THE PATTERN WHICH UNDERLIES ONE LARGE FIELD OF 
 HUMAN EXPERIENCE AND HUMAN MEASUREMENT, THEN TAKE UP CHEMISTRY.

                                         -- C. A. COULSON, 1973.
 Job cpu time:       0 days  0 hours 43 minutes 59.5 seconds.
 Elapsed time:       0 days  0 hours  7 minutes 37.2 seconds.
 File lengths (MBytes):  RWF=     10 Int=      0 D2E=      0 Chk=      2 Scr=      1
 Normal termination of Gaussian 16 at Wed Jan  5 16:37:59 2022.
