Atom number=17                                                          
SP        RwB97XD                                                     6-31G               
Number of atoms                            I               17
Info1-9                                    I   N=           9
          81          26           0           0           0         110
           1          18       -5802
Full Title                                 C   N=           2
Atom number=17          
Route                                      C   N=           3
#p int=acc2e=12 wb97xd/6-31g        
Charge                                     I                1
Multiplicity                               I                1
Number of electrons                        I               90
Number of alpha electrons                  I               45
Number of beta electrons                   I               45
Number of basis functions                  I              125
Number of independent functions            I              125
Number of point charges in /Mol/           I                0
Number of translation vectors              I                0
Atomic numbers                             I   N=          17
           6           8           7           6           6           8
           7           6           6           6           8           7
           6           1           1           1           1
Nuclear charges                            R   N=          17
  6.00000000E+00  8.00000000E+00  7.00000000E+00  6.00000000E+00  6.00000000E+00
  8.00000000E+00  7.00000000E+00  6.00000000E+00  6.00000000E+00  6.00000000E+00
  8.00000000E+00  7.00000000E+00  6.00000000E+00  1.00000000E+00  1.00000000E+00
  1.00000000E+00  1.00000000E+00
Current cartesian coordinates              R   N=          51
 -5.73045545E+00  2.90590831E+00 -9.08716308E-01 -6.35774052E+00  3.37202555E+00
  1.18994266E+00 -4.35270819E+00  9.19318485E-01 -1.47659973E+00 -3.68092308E+00
 -9.34836605E-01  4.22479035E-01 -9.74921477E-01 -1.75826261E+00  1.39702490E-01
 -2.59958080E-01 -2.85776273E+00 -1.77829082E+00  5.30040743E-01 -1.24468838E+00
  2.06215344E+00  3.16969214E+00 -1.93645082E+00  2.00203474E+00 -5.48082693E+00
 -3.22419270E+00  1.27187498E-01  4.82463750E+00 -5.22355804E-01  2.26489092E-01
  5.62644302E+00 -1.46322045E+00 -1.72233468E+00  5.37186860E+00  1.78251495E+00
  9.52127801E-01  6.92232695E+00  3.56131631E+00 -5.30925219E-01 -6.23007837E+00
  4.16998163E+00 -2.40571588E+00 -5.34544170E+00 -4.62386998E+00  1.58014533E+00
  8.44725141E+00  4.05406250E+00  7.02086819E-01  5.91672727E+00  5.24471499E+00
 -1.02433206E+00
Number of symbols in /Mol/                 I                0
Int Atom Types                             I   N=          17
           0           0           0           0           0           0
           0           0           0           0           0           0
           0           0           0           0           0
Force Field                                I                0
Atom Types                                 C   N=          17
                                                            
                                                            
                                                            
                        
MM charges                                 R   N=          17
  0.00000000E+00  0.00000000E+00  0.00000000E+00  0.00000000E+00  0.00000000E+00
  0.00000000E+00  0.00000000E+00  0.00000000E+00  0.00000000E+00  0.00000000E+00
  0.00000000E+00  0.00000000E+00  0.00000000E+00  0.00000000E+00  0.00000000E+00
  0.00000000E+00  0.00000000E+00
Integer atomic weights                     I   N=          17
          12          16          14          12          12          16
          14          12          12          12          16          14
          12           1           1           1           1
Real atomic weights                        R   N=          17
  1.20000000E+01  1.59949146E+01  1.40030740E+01  1.20000000E+01  1.20000000E+01
  1.59949146E+01  1.40030740E+01  1.20000000E+01  1.20000000E+01  1.20000000E+01
  1.59949146E+01  1.40030740E+01  1.20000000E+01  1.00782504E+00  1.00782504E+00
  1.00782504E+00  1.00782504E+00
Atom fragment info                         I   N=          17
           0           0           0           0           0           0
           0           0           0           0           0           0
           0           0           0           0           0
Atom residue num                           I   N=          17
           0           0           0           0           0           0
           0           0           0           0           0           0
           0           0           0           0           0
Nuclear spins                              I   N=          17
           0           0           2           0           0           0
           2           0           0           0           0           2
           0           1           1           1           1
Nuclear ZEff                               R   N=          17
 -3.60000000E+00 -5.60000000E+00 -4.55000000E+00 -3.60000000E+00 -3.60000000E+00
 -5.60000000E+00 -4.55000000E+00 -3.60000000E+00 -3.60000000E+00 -3.60000000E+00
 -5.60000000E+00 -4.55000000E+00 -3.60000000E+00 -1.00000000E+00 -1.00000000E+00
 -1.00000000E+00 -1.00000000E+00
Nuclear ZNuc                               R   N=          17
  6.00000000E+00  8.00000000E+00  7.00000000E+00  6.00000000E+00  6.00000000E+00
  8.00000000E+00  7.00000000E+00  6.00000000E+00  6.00000000E+00  6.00000000E+00
  8.00000000E+00  7.00000000E+00  6.00000000E+00  1.00000000E+00  1.00000000E+00
  1.00000000E+00  1.00000000E+00
Nuclear QMom                               R   N=          17
  0.00000000E+00  0.00000000E+00  2.04400000E+00  0.00000000E+00  0.00000000E+00
  0.00000000E+00  2.04400000E+00  0.00000000E+00  0.00000000E+00  0.00000000E+00
  0.00000000E+00  2.04400000E+00  0.00000000E+00  0.00000000E+00  0.00000000E+00
  0.00000000E+00  0.00000000E+00
Nuclear GFac                               R   N=          17
  0.00000000E+00  0.00000000E+00  4.03761000E-01  0.00000000E+00  0.00000000E+00
  0.00000000E+00  4.03761000E-01  0.00000000E+00  0.00000000E+00  0.00000000E+00
  0.00000000E+00  4.03761000E-01  0.00000000E+00  2.79284600E+00  2.79284600E+00
  2.79284600E+00  2.79284600E+00
MicOpt                                     I   N=          17
          -1          -1          -1          -1          -1          -1
          -1          -1          -1          -1          -1          -1
          -1          -1          -1          -1          -1
Number of residues                         I                0
Number of secondary structures             I                0
SymInf integers                            I   N=          26
           1           1           1           1           1           0
           0           0           0           0           0           0
           0           0           0           0           0           0
           0           0           0           0           0           0
           0           0
RotTr to input orientation                 R   N=          12
  2.91274264E-01  2.74339208E-01  9.16459111E-01 -8.47528772E-01 -3.70310074E-01
  3.80217608E-01  4.43682638E-01 -8.87473069E-01  1.24648578E-01  6.12252669E+00
  2.27888368E-01  1.70951406E+01
Number of contracted shells                I               47
Number of primitive shells                 I              146
Pure/Cartesian d shells                    I                1
Pure/Cartesian f shells                    I                0
Highest angular momentum                   I                1
Largest degree of contraction              I                6
Shell types                                I   N=          47
           0          -1          -1           0          -1          -1
           0          -1          -1           0          -1          -1
           0          -1          -1           0          -1          -1
           0          -1          -1           0          -1          -1
           0          -1          -1           0          -1          -1
           0          -1          -1           0          -1          -1
           0          -1          -1           0           0           0
           0           0           0           0           0
Number of primitives per shell             I   N=          47
           6           3           1           6           3           1
           6           3           1           6           3           1
           6           3           1           6           3           1
           6           3           1           6           3           1
           6           3           1           6           3           1
           6           3           1           6           3           1
           6           3           1           3           1           3
           1           3           1           3           1
Shell to atom map                          I   N=          47
           1           1           1           2           2           2
           3           3           3           4           4           4
           5           5           5           6           6           6
           7           7           7           8           8           8
           9           9           9          10          10          10
          11          11          11          12          12          12
          13          13          13          14          14          15
          15          16          16          17          17
Primitive exponents                        R   N=         146
  3.04752488E+03  4.57369518E+02  1.03948685E+02  2.92101553E+01  9.28666296E+00
  3.16392696E+00  7.86827235E+00  1.88128854E+00  5.44249258E-01  1.68714478E-01
  5.48467166E+03  8.25234946E+02  1.88046958E+02  5.29645000E+01  1.68975704E+01
  5.79963534E+00  1.55396162E+01  3.59993359E+00  1.01376175E+00  2.70005823E-01
  4.17351146E+03  6.27457911E+02  1.42902093E+02  4.02343293E+01  1.28202129E+01
  4.39043701E+00  1.16263619E+01  2.71627981E+00  7.72218397E-01  2.12031498E-01
  3.04752488E+03  4.57369518E+02  1.03948685E+02  2.92101553E+01  9.28666296E+00
  3.16392696E+00  7.86827235E+00  1.88128854E+00  5.44249258E-01  1.68714478E-01
  3.04752488E+03  4.57369518E+02  1.03948685E+02  2.92101553E+01  9.28666296E+00
  3.16392696E+00  7.86827235E+00  1.88128854E+00  5.44249258E-01  1.68714478E-01
  5.48467166E+03  8.25234946E+02  1.88046958E+02  5.29645000E+01  1.68975704E+01
  5.79963534E+00  1.55396162E+01  3.59993359E+00  1.01376175E+00  2.70005823E-01
  4.17351146E+03  6.27457911E+02  1.42902093E+02  4.02343293E+01  1.28202129E+01
  4.39043701E+00  1.16263619E+01  2.71627981E+00  7.72218397E-01  2.12031498E-01
  3.04752488E+03  4.57369518E+02  1.03948685E+02  2.92101553E+01  9.28666296E+00
  3.16392696E+00  7.86827235E+00  1.88128854E+00  5.44249258E-01  1.68714478E-01
  3.04752488E+03  4.57369518E+02  1.03948685E+02  2.92101553E+01  9.28666296E+00
  3.16392696E+00  7.86827235E+00  1.88128854E+00  5.44249258E-01  1.68714478E-01
  3.04752488E+03  4.57369518E+02  1.03948685E+02  2.92101553E+01  9.28666296E+00
  3.16392696E+00  7.86827235E+00  1.88128854E+00  5.44249258E-01  1.68714478E-01
  5.48467166E+03  8.25234946E+02  1.88046958E+02  5.29645000E+01  1.68975704E+01
  5.79963534E+00  1.55396162E+01  3.59993359E+00  1.01376175E+00  2.70005823E-01
  4.17351146E+03  6.27457911E+02  1.42902093E+02  4.02343293E+01  1.28202129E+01
  4.39043701E+00  1.16263619E+01  2.71627981E+00  7.72218397E-01  2.12031498E-01
  3.04752488E+03  4.57369518E+02  1.03948685E+02  2.92101553E+01  9.28666296E+00
  3.16392696E+00  7.86827235E+00  1.88128854E+00  5.44249258E-01  1.68714478E-01
  1.87311370E+01  2.82539436E+00  6.40121692E-01  1.61277759E-01  1.87311370E+01
  2.82539436E+00  6.40121692E-01  1.61277759E-01  1.87311370E+01  2.82539436E+00
  6.40121692E-01  1.61277759E-01  1.87311370E+01  2.82539436E+00  6.40121692E-01
  1.61277759E-01
Contraction coefficients                   R   N=         146
  1.83473713E-03  1.40373228E-02  6.88426223E-02  2.32184443E-01  4.67941348E-01
  3.62311985E-01 -1.19332420E-01 -1.60854152E-01  1.14345644E+00  1.00000000E+00
  1.83107443E-03  1.39501722E-02  6.84450781E-02  2.32714336E-01  4.70192898E-01
  3.58520853E-01 -1.10777550E-01 -1.48026263E-01  1.13076702E+00  1.00000000E+00
  1.83477216E-03  1.39946270E-02  6.85865518E-02  2.32240873E-01  4.69069948E-01
  3.60455199E-01 -1.14961182E-01 -1.69117479E-01  1.14585195E+00  1.00000000E+00
  1.83473713E-03  1.40373228E-02  6.88426223E-02  2.32184443E-01  4.67941348E-01
  3.62311985E-01 -1.19332420E-01 -1.60854152E-01  1.14345644E+00  1.00000000E+00
  1.83473713E-03  1.40373228E-02  6.88426223E-02  2.32184443E-01  4.67941348E-01
  3.62311985E-01 -1.19332420E-01 -1.60854152E-01  1.14345644E+00  1.00000000E+00
  1.83107443E-03  1.39501722E-02  6.84450781E-02  2.32714336E-01  4.70192898E-01
  3.58520853E-01 -1.10777550E-01 -1.48026263E-01  1.13076702E+00  1.00000000E+00
  1.83477216E-03  1.39946270E-02  6.85865518E-02  2.32240873E-01  4.69069948E-01
  3.60455199E-01 -1.14961182E-01 -1.69117479E-01  1.14585195E+00  1.00000000E+00
  1.83473713E-03  1.40373228E-02  6.88426223E-02  2.32184443E-01  4.67941348E-01
  3.62311985E-01 -1.19332420E-01 -1.60854152E-01  1.14345644E+00  1.00000000E+00
  1.83473713E-03  1.40373228E-02  6.88426223E-02  2.32184443E-01  4.67941348E-01
  3.62311985E-01 -1.19332420E-01 -1.60854152E-01  1.14345644E+00  1.00000000E+00
  1.83473713E-03  1.40373228E-02  6.88426223E-02  2.32184443E-01  4.67941348E-01
  3.62311985E-01 -1.19332420E-01 -1.60854152E-01  1.14345644E+00  1.00000000E+00
  1.83107443E-03  1.39501722E-02  6.84450781E-02  2.32714336E-01  4.70192898E-01
  3.58520853E-01 -1.10777550E-01 -1.48026263E-01  1.13076702E+00  1.00000000E+00
  1.83477216E-03  1.39946270E-02  6.85865518E-02  2.32240873E-01  4.69069948E-01
  3.60455199E-01 -1.14961182E-01 -1.69117479E-01  1.14585195E+00  1.00000000E+00
  1.83473713E-03  1.40373228E-02  6.88426223E-02  2.32184443E-01  4.67941348E-01
  3.62311985E-01 -1.19332420E-01 -1.60854152E-01  1.14345644E+00  1.00000000E+00
  3.34946043E-02  2.34726953E-01  8.13757326E-01  1.00000000E+00  3.34946043E-02
  2.34726953E-01  8.13757326E-01  1.00000000E+00  3.34946043E-02  2.34726953E-01
  8.13757326E-01  1.00000000E+00  3.34946043E-02  2.34726953E-01  8.13757326E-01
  1.00000000E+00
P(S=P) Contraction coefficients            R   N=         146
  0.00000000E+00  0.00000000E+00  0.00000000E+00  0.00000000E+00  0.00000000E+00
  0.00000000E+00  6.89990666E-02  3.16423961E-01  7.44308291E-01  1.00000000E+00
  0.00000000E+00  0.00000000E+00  0.00000000E+00  0.00000000E+00  0.00000000E+00
  0.00000000E+00  7.08742682E-02  3.39752839E-01  7.27158577E-01  1.00000000E+00
  0.00000000E+00  0.00000000E+00  0.00000000E+00  0.00000000E+00  0.00000000E+00
  0.00000000E+00  6.75797439E-02  3.23907296E-01  7.40895140E-01  1.00000000E+00
  0.00000000E+00  0.00000000E+00  0.00000000E+00  0.00000000E+00  0.00000000E+00
  0.00000000E+00  6.89990666E-02  3.16423961E-01  7.44308291E-01  1.00000000E+00
  0.00000000E+00  0.00000000E+00  0.00000000E+00  0.00000000E+00  0.00000000E+00
  0.00000000E+00  6.89990666E-02  3.16423961E-01  7.44308291E-01  1.00000000E+00
  0.00000000E+00  0.00000000E+00  0.00000000E+00  0.00000000E+00  0.00000000E+00
  0.00000000E+00  7.08742682E-02  3.39752839E-01  7.27158577E-01  1.00000000E+00
  0.00000000E+00  0.00000000E+00  0.00000000E+00  0.00000000E+00  0.00000000E+00
  0.00000000E+00  6.75797439E-02  3.23907296E-01  7.40895140E-01  1.00000000E+00
  0.00000000E+00  0.00000000E+00  0.00000000E+00  0.00000000E+00  0.00000000E+00
  0.00000000E+00  6.89990666E-02  3.16423961E-01  7.44308291E-01  1.00000000E+00
  0.00000000E+00  0.00000000E+00  0.00000000E+00  0.00000000E+00  0.00000000E+00
  0.00000000E+00  6.89990666E-02  3.16423961E-01  7.44308291E-01  1.00000000E+00
  0.00000000E+00  0.00000000E+00  0.00000000E+00  0.00000000E+00  0.00000000E+00
  0.00000000E+00  6.89990666E-02  3.16423961E-01  7.44308291E-01  1.00000000E+00
  0.00000000E+00  0.00000000E+00  0.00000000E+00  0.00000000E+00  0.00000000E+00
  0.00000000E+00  7.08742682E-02  3.39752839E-01  7.27158577E-01  1.00000000E+00
  0.00000000E+00  0.00000000E+00  0.00000000E+00  0.00000000E+00  0.00000000E+00
  0.00000000E+00  6.75797439E-02  3.23907296E-01  7.40895140E-01  1.00000000E+00
  0.00000000E+00  0.00000000E+00  0.00000000E+00  0.00000000E+00  0.00000000E+00
  0.00000000E+00  6.89990666E-02  3.16423961E-01  7.44308291E-01  1.00000000E+00
  0.00000000E+00  0.00000000E+00  0.00000000E+00  0.00000000E+00  0.00000000E+00
  0.00000000E+00  0.00000000E+00  0.00000000E+00  0.00000000E+00  0.00000000E+00
  0.00000000E+00  0.00000000E+00  0.00000000E+00  0.00000000E+00  0.00000000E+00
  0.00000000E+00
Coordinates of each shell                  R   N=         141
 -5.73045545E+00  2.90590831E+00 -9.08716308E-01 -5.73045545E+00  2.90590831E+00
 -9.08716308E-01 -5.73045545E+00  2.90590831E+00 -9.08716308E-01 -6.35774052E+00
  3.37202555E+00  1.18994266E+00 -6.35774052E+00  3.37202555E+00  1.18994266E+00
 -6.35774052E+00  3.37202555E+00  1.18994266E+00 -4.35270819E+00  9.19318485E-01
 -1.47659973E+00 -4.35270819E+00  9.19318485E-01 -1.47659973E+00 -4.35270819E+00
  9.19318485E-01 -1.47659973E+00 -3.68092308E+00 -9.34836605E-01  4.22479035E-01
 -3.68092308E+00 -9.34836605E-01  4.22479035E-01 -3.68092308E+00 -9.34836605E-01
  4.22479035E-01 -9.74921477E-01 -1.75826261E+00  1.39702490E-01 -9.74921477E-01
 -1.75826261E+00  1.39702490E-01 -9.74921477E-01 -1.75826261E+00  1.39702490E-01
 -2.59958080E-01 -2.85776273E+00 -1.77829082E+00 -2.59958080E-01 -2.85776273E+00
 -1.77829082E+00 -2.59958080E-01 -2.85776273E+00 -1.77829082E+00  5.30040743E-01
 -1.24468838E+00  2.06215344E+00  5.30040743E-01 -1.24468838E+00  2.06215344E+00
  5.30040743E-01 -1.24468838E+00  2.06215344E+00  3.16969214E+00 -1.93645082E+00
  2.00203474E+00  3.16969214E+00 -1.93645082E+00  2.00203474E+00  3.16969214E+00
 -1.93645082E+00  2.00203474E+00 -5.48082693E+00 -3.22419270E+00  1.27187498E-01
 -5.48082693E+00 -3.22419270E+00  1.27187498E-01 -5.48082693E+00 -3.22419270E+00
  1.27187498E-01  4.82463750E+00 -5.22355804E-01  2.26489092E-01  4.82463750E+00
 -5.22355804E-01  2.26489092E-01  4.82463750E+00 -5.22355804E-01  2.26489092E-01
  5.62644302E+00 -1.46322045E+00 -1.72233468E+00  5.62644302E+00 -1.46322045E+00
 -1.72233468E+00  5.62644302E+00 -1.46322045E+00 -1.72233468E+00  5.37186860E+00
  1.78251495E+00  9.52127801E-01  5.37186860E+00  1.78251495E+00  9.52127801E-01
  5.37186860E+00  1.78251495E+00  9.52127801E-01  6.92232695E+00  3.56131631E+00
 -5.30925219E-01  6.92232695E+00  3.56131631E+00 -5.30925219E-01  6.92232695E+00
  3.56131631E+00 -5.30925219E-01 -6.23007837E+00  4.16998163E+00 -2.40571588E+00
 -6.23007837E+00  4.16998163E+00 -2.40571588E+00 -5.34544170E+00 -4.62386998E+00
  1.58014533E+00 -5.34544170E+00 -4.62386998E+00  1.58014533E+00  8.44725141E+00
  4.05406250E+00  7.02086819E-01  8.44725141E+00  4.05406250E+00  7.02086819E-01
  5.91672727E+00  5.24471499E+00 -1.02433206E+00  5.91672727E+00  5.24471499E+00
 -1.02433206E+00
Num ILSW                                   I              100
ILSW                                       I   N=         100
           0           1           0           0           2           0
           0           0           0           0        4639          -1
           5           0           0           0           0           0
           0           0           0           0           0           0
           1           0           0           0           0           0
           0           0      100000           0          -1           0
           0           0           0           0           0           0
           0           0           0           1           0           0
           0 -2000000000           1           0           0           0
           0           0         121          52           0           0
           0           0          58           0           0           0
           0           0           0          17           0           1
           0           0           0           0           0           0
           0           0           0           0           0           0
           0           0           0           0           0           0
           0           0           0           0           0           0
           0           0           0           0
Num RLSW                                   I               52
RLSW                                       R   N=          52
  1.00000000E+00  1.00000000E+00  1.00000000E+00  1.00000000E+00  1.00000000E+00
  0.00000000E+00  2.00000000E-01  2.22036000E-01  0.00000000E+00  7.77964000E-01
  0.00000000E+00  2.00000000E-01  0.00000000E+00  0.00000000E+00  1.00000000E+00
  0.00000000E+00  0.00000000E+00  1.00000000E+00  0.00000000E+00  0.00000000E+00
  0.00000000E+00  0.00000000E+00  1.00000000E+00  0.00000000E+00  0.00000000E+00
  0.00000000E+00  0.00000000E+00  1.00000000E+00  0.00000000E+00  0.00000000E+00
  0.00000000E+00  0.00000000E+00  1.00000000E+00  0.00000000E+00  0.00000000E+00
  0.00000000E+00  0.00000000E+00  0.00000000E+00  1.00000000E+00  1.00000000E+00
  0.00000000E+00  1.00000000E+00  0.00000000E+00  0.00000000E+00  0.00000000E+00
  0.00000000E+00  0.00000000E+00  0.00000000E+00  0.00000000E+00  0.00000000E+00
  0.00000000E+00  0.00000000E+00
MxBond                                     I                3
NBond                                      I   N=          17
           3           1           2           3           3           1
           2           2           2           3           1           2
           3           1           1           1           1
IBond                                      I   N=          51
           2           3          14           1           0           0
           1           4           0           3           5           9
           4           6           7           5           0           0
           5           8           0           7          10           0
           4          15           0           8          11          12
          10           0           0          10          13           0
          12          16          17           1           0           0
           9           0           0          13           0           0
          13           0           0
RBond                                      R   N=          51
  2.00000000E+00  1.50000000E+00  1.00000000E+00  2.00000000E+00  0.00000000E+00
  0.00000000E+00  1.50000000E+00  1.00000000E+00  0.00000000E+00  1.00000000E+00
  1.00000000E+00  1.00000000E+00  1.00000000E+00  2.00000000E+00  1.50000000E+00
  2.00000000E+00  0.00000000E+00  0.00000000E+00  1.50000000E+00  1.00000000E+00
  0.00000000E+00  1.00000000E+00  1.00000000E+00  0.00000000E+00  1.00000000E+00
  1.00000000E+00  0.00000000E+00  1.00000000E+00  2.00000000E+00  1.50000000E+00
  2.00000000E+00  0.00000000E+00  0.00000000E+00  1.50000000E+00  1.00000000E+00
  0.00000000E+00  1.00000000E+00  1.00000000E+00  1.00000000E+00  1.00000000E+00
  0.00000000E+00  0.00000000E+00  1.00000000E+00  0.00000000E+00  0.00000000E+00
  1.00000000E+00  0.00000000E+00  0.00000000E+00  1.00000000E+00  0.00000000E+00
  0.00000000E+00
Virial Ratio                               R      2.005121912873751E+00
SCF Energy                                 R     -6.576824095050046E+02
Total Energy                               R     -6.576824095050046E+02
RMS Density                                R      9.374510304973874E-09
Job Status                                 I                1
Nuclear derivative order                   I                0
External E-field                           R   N=          35
  0.00000000E+00  0.00000000E+00  0.00000000E+00  0.00000000E+00  0.00000000E+00
  0.00000000E+00  0.00000000E+00  0.00000000E+00  0.00000000E+00  0.00000000E+00
  0.00000000E+00  0.00000000E+00  0.00000000E+00  0.00000000E+00  0.00000000E+00
  0.00000000E+00  0.00000000E+00  0.00000000E+00  0.00000000E+00  0.00000000E+00
  0.00000000E+00  0.00000000E+00  0.00000000E+00  0.00000000E+00  0.00000000E+00
  0.00000000E+00  0.00000000E+00  0.00000000E+00  0.00000000E+00  0.00000000E+00
  0.00000000E+00  0.00000000E+00  0.00000000E+00  0.00000000E+00  0.00000000E+00
IOpCl                                      I                0
IROHF                                      I                0
Alpha Orbital Energies                     R   N=         125
 -1.95023124E+01 -1.94900955E+01 -1.93884947E+01 -1.47745121E+01 -1.47162030E+01
 -1.46516584E+01 -1.06980427E+01 -1.06615491E+01 -1.06547159E+01 -1.06271629E+01
 -1.05970075E+01 -1.05903482E+01 -1.05363868E+01 -1.41965714E+00 -1.40564691E+00
 -1.33294979E+00 -1.28397367E+00 -1.24066821E+00 -1.18919629E+00 -1.09860264E+00
 -1.05769398E+00 -1.01469347E+00 -9.39872191E-01 -9.04895398E-01 -8.40910627E-01
 -8.04139329E-01 -7.83428993E-01 -7.67964477E-01 -7.62756883E-01 -7.59732086E-01
 -7.49834272E-01 -7.25884230E-01 -7.04283668E-01 -6.75497402E-01 -6.64705642E-01
 -6.51133480E-01 -6.36710168E-01 -6.22087506E-01 -6.12364249E-01 -5.74258549E-01
 -5.66944049E-01 -5.42228542E-01 -5.14103381E-01 -4.82265030E-01 -4.65492993E-01
 -3.39724613E-01 -2.87988057E-01 -2.72760017E-01 -2.69169352E-01 -1.84461725E-01
 -1.22246031E-01 -1.15671327E-01 -2.23238361E-02  3.25983100E-02  4.02744467E-02
  6.02206138E-02  6.67115651E-02  7.39943130E-02  9.50346225E-02  1.20893813E-01
  1.41081375E-01  1.53018730E-01  1.64217252E-01  1.89516891E-01  2.06017481E-01
  2.34160565E-01  2.81343508E-01  2.96989232E-01  3.12614382E-01  3.74864842E-01
  4.03157534E-01  4.21607401E-01  4.25340135E-01  4.32014082E-01  4.41412321E-01
  4.43477354E-01  4.53900606E-01  4.65701200E-01  4.90911087E-01  4.93403895E-01
  4.99229703E-01  5.10490050E-01  5.33619766E-01  5.37745543E-01  5.71007181E-01
  5.85902483E-01  6.00386528E-01  6.17794434E-01  6.27551285E-01  6.32012827E-01
  6.59253442E-01  6.74091402E-01  7.06119367E-01  7.13901553E-01  7.19570837E-01
  7.60813812E-01  7.81644274E-01  8.01618333E-01  8.26512636E-01  8.35210940E-01
  8.35848493E-01  8.46542514E-01  8.61452297E-01  8.75634578E-01  8.88448745E-01
  9.05846856E-01  9.23557946E-01  9.42168092E-01  9.49611941E-01  9.66260583E-01
  9.84177049E-01  1.02482781E+00  1.03239778E+00  1.07521901E+00  1.09216601E+00
  1.14493507E+00  1.16778203E+00  1.22766314E+00  1.33540469E+00  1.41699554E+00
  1.43577516E+00  1.55994617E+00  1.71652920E+00  1.78685228E+00  1.85636872E+00
Alpha MO coefficients                      R   N=       15625
 -8.71243257E-06 -1.57735136E-04 -7.81892305E-05  1.32979453E-04  5.17231754E-05
 -1.00211188E-03 -5.88028946E-05  4.92594935E-04  2.28584530E-04  1.89794027E-05
  3.59987237E-05  4.28783635E-05  3.30859699E-06  1.04899439E-05 -5.19083814E-05
 -1.44074712E-04 -8.10591583E-05 -1.99634399E-05 -5.50372211E-06 -1.72886820E-05
  1.63278333E-04 -1.10187680E-04 -2.91014998E-05  9.87584837E-04 -1.47087350E-03
  7.10673152E-04  2.99796663E-04 -3.42944684E-05 -4.80012711E-04 -2.62666486E-04
  1.65690297E-04  1.56431836E-04  4.05587367E-03  3.46800640E-03 -2.08601664E-04
  1.69876660E-03  2.41548818E-04  3.31157468E-04  1.33876559E-05  1.40930865E-05
  1.35561297E-04  6.01417449E-03  4.54635013E-03 -6.92706203E-03 -1.25386861E-02
  9.95259488E-01  2.99201478E-02 -7.20634281E-04  1.22775024E-03  2.18655491E-03
 -2.50906782E-02  2.41013779E-03 -3.69374995E-03 -6.29728663E-03 -1.35330095E-05
 -3.04902796E-04  2.98847771E-04  1.72122682E-05  2.37994785E-04  2.58635309E-03
 -4.38923527E-03  8.75640722E-04 -4.79884868E-04  1.42646302E-05  1.25050247E-04
 -1.63880817E-04  9.56804117E-05  1.49593532E-04  2.18082483E-03 -9.80067093E-04
  8.71240260E-04  2.21798554E-04  4.74528458E-05  4.25052132E-04 -3.50933061E-06
  1.70315757E-06  3.73515110E-05 -7.98124399E-04 -7.76222478E-04  8.14686909E-04
 -4.49271908E-04  2.99723780E-05  2.85946521E-04 -5.64861861E-05  4.39923558E-05
 -2.27555956E-05 -1.49022317E-03  5.52466011E-04 -1.05999670E-03 -4.49759824E-04
  4.41957024E-04  1.19285587E-04 -1.41964920E-05 -1.77238937E-05  1.50189608E-05
 -4.00240870E-04  1.93453145E-05  1.29278748E-04 -1.40941316E-04 -1.45869667E-05
 -1.74804246E-04  3.05962222E-05  7.93844624E-06  2.67969293E-05  1.22493480E-03
 -3.67960040E-04 -5.10258135E-04 -2.44405594E-04 -1.44492363E-06 -3.36248152E-05
  2.38872608E-05  1.18458614E-05  3.26241588E-06  1.10260719E-04 -3.00473309E-05
  1.85461446E-05  6.95940803E-05  3.61666142E-05  4.33472945E-05  2.13499163E-04
  6.09709214E-04 -1.87076945E-05  2.66219394E-05 -2.74544713E-06 -3.78638547E-05
  2.63700496E-06  2.93094694E-05  9.95922627E-06 -2.60871716E-05  4.01737941E-06
  7.90948800E-05  1.82147724E-05  2.28706053E-05 -2.13500738E-04 -3.63816819E-06
 -9.65133606E-06  8.43810285E-07 -8.44399933E-06  1.90458684E-06  1.12211652E-04
  7.86763015E-06  1.52878441E-05 -3.06986001E-05 -6.72256746E-07 -1.28413721E-05
 -2.70730946E-05  1.43983248E-05 -2.89512526E-06  3.51005793E-05  1.80417077E-04
 -2.00333041E-04  6.36200072E-05  2.53276900E-05  2.46604089E-04  1.15972434E-05
 -6.52096135E-05  1.71931617E-05 -1.52052043E-03 -5.82336182E-04  4.58097811E-04
  1.40042371E-04 -1.89111455E-06 -1.43523050E-06  1.06146509E-04  1.44677895E-05
 -1.54433943E-04 -4.38293173E-04 -1.58848908E-03  2.26180983E-05  1.01778933E-05
 -4.37455329E-04  6.14729285E-05  9.40388674E-05  3.69163945E-05 -3.63725062E-07
  2.38620206E-04 -1.19639952E-04 -2.61006849E-05  1.21178331E-04 -1.93799527E-05
 -2.32628501E-04  2.18735160E-05 -7.92586542E-06  6.01858211E-05  3.88877657E-04
 -6.72089756E-04 -1.22356521E-04 -9.21536684E-04 -3.30222393E-05 -5.28889309E-04