 Entering Gaussian System, Link 0=g16
 Input=4znn_01_gebf_dft_4.gjf
 Output=4znn_01_gebf_dft_4.log
 Initial command:
 /work/01114/jfonner/frontera/gaussian/16rC.01/g16/l1.exe "/scratch1/08249/sa748948/lsqc/62950343/Gau-176207.inp" -scrdir="/scratch1/08249/sa748948/lsqc/62950343/"
 Entering Link 1 = /work/01114/jfonner/frontera/gaussian/16rC.01/g16/l1.exe PID=    176217.
  
 Copyright (c) 1988-2019, Gaussian, Inc.  All Rights Reserved.
  
 This is part of the Gaussian(R) 16 program.  It is based on
 the Gaussian(R) 09 system (copyright 2009, Gaussian, Inc.),
 the Gaussian(R) 03 system (copyright 2003, Gaussian, Inc.),
 the Gaussian(R) 98 system (copyright 1998, Gaussian, Inc.),
 the Gaussian(R) 94 system (copyright 1995, Gaussian, Inc.),
 the Gaussian 92(TM) system (copyright 1992, Gaussian, Inc.),
 the Gaussian 90(TM) system (copyright 1990, Gaussian, Inc.),
 the Gaussian 88(TM) system (copyright 1988, Gaussian, Inc.),
 the Gaussian 86(TM) system (copyright 1986, Carnegie Mellon
 University), and the Gaussian 82(TM) system (copyright 1983,
 Carnegie Mellon University). Gaussian is a federally registered
 trademark of Gaussian, Inc.
  
 This software contains proprietary and confidential information,
 including trade secrets, belonging to Gaussian, Inc.
  
 This software is provided under written license and may be
 used, copied, transmitted, or stored only in accord with that
 written license.
  
 The following legend is applicable only to US Government
 contracts under FAR:
  
                    RESTRICTED RIGHTS LEGEND
  
 Use, reproduction and disclosure by the US Government is
 subject to restrictions as set forth in subparagraphs (a)
 and (c) of the Commercial Computer Software - Restricted
 Rights clause in FAR 52.227-19.
  
 Gaussian, Inc.
 340 Quinnipiac St., Bldg. 40, Wallingford CT 06492
  
  
 ---------------------------------------------------------------
 Warning -- This program may not be used in any manner that
 competes with the business of Gaussian, Inc. or will provide
 assistance to any competitor of Gaussian, Inc.  The licensee
 of this program is prohibited from giving any competitor of
 Gaussian, Inc. access to this program.  By using this program,
 the user acknowledges that Gaussian, Inc. is engaged in the
 business of creating and licensing software in the field of
 computational chemistry and represents and warrants to the
 licensee that it is not a competitor of Gaussian, Inc. and that
 it will not use this program in any manner prohibited above.
 ---------------------------------------------------------------
  

 Cite this work as:
 Gaussian 16, Revision C.01,
 M. J. Frisch, G. W. Trucks, H. B. Schlegel, G. E. Scuseria, 
 M. A. Robb, J. R. Cheeseman, G. Scalmani, V. Barone, 
 G. A. Petersson, H. Nakatsuji, X. Li, M. Caricato, A. V. Marenich, 
 J. Bloino, B. G. Janesko, R. Gomperts, B. Mennucci, H. P. Hratchian, 
 J. V. Ortiz, A. F. Izmaylov, J. L. Sonnenberg, D. Williams-Young, 
 F. Ding, F. Lipparini, F. Egidi, J. Goings, B. Peng, A. Petrone, 
 T. Henderson, D. Ranasinghe, V. G. Zakrzewski, J. Gao, N. Rega, 
 G. Zheng, W. Liang, M. Hada, M. Ehara, K. Toyota, R. Fukuda, 
 J. Hasegawa, M. Ishida, T. Nakajima, Y. Honda, O. Kitao, H. Nakai, 
 T. Vreven, K. Throssell, J. A. Montgomery, Jr., J. E. Peralta, 
 F. Ogliaro, M. J. Bearpark, J. J. Heyd, E. N. Brothers, K. N. Kudin, 
 V. N. Staroverov, T. A. Keith, R. Kobayashi, J. Normand, 
 K. Raghavachari, A. P. Rendell, J. C. Burant, S. S. Iyengar, 
 J. Tomasi, M. Cossi, J. M. Millam, M. Klene, C. Adamo, R. Cammi, 
 J. W. Ochterski, R. L. Martin, K. Morokuma, O. Farkas, 
 J. B. Foresman, and D. J. Fox, Gaussian, Inc., Wallingford CT, 2019.
 
 ******************************************
 Gaussian 16:  ES64L-G16RevC.01  3-Jul-2019
                 5-Jan-2022 
 ******************************************
 %chk=4znn_01_gebf_dft_4.chk
 %nproc=56
 Will use up to   56 processors via shared memory.
 %mem=3gb
 ----------------------------
 #p int=acc2e=12 wb97xd/6-31g
 ----------------------------
 1/38=1,172=1/1;
 2/12=2,17=6,18=5,40=1/2;
 3/5=1,6=6,11=2,25=1,27=12,30=1,74=-58/1,2,3;
 4//1;
 5/5=2,38=5,87=12/2;
 6/7=2,8=2,9=2,10=2,28=1,87=12/1;
 99/5=1,9=1/99;
 Leave Link    1 at Wed Jan  5 16:30:22 2022, MaxMem=   402653184 cpu:               2.7 elap:               0.5
 (Enter /work/01114/jfonner/frontera/gaussian/16rC.01/g16/l101.exe)
 --------------
 Atom number=17
 --------------
 Symbolic Z-matrix:
 Charge =  1 Multiplicity = 1
 c                     0.84     -0.854     6.792 
 o                     1.027    -2.022     6.72 
 n                     1.81      0.002     7.023 
 c                     3.191    -0.429     7.101 
 c                     3.911     0.258     8.229 
 o                     4.064     1.478     8.228 
 n                     4.364    -0.527     9.189 
 c                     5.067     0.02      10.326 
 c                     3.871    -0.103     5.748 
 c                     4.271     0.817     11.296 
 o                     4.359     2.033     11.367 
 n                     3.492     0.104     12.073 
 c                     2.585     0.677     13.085 
 h                    -0.15541  -0.4712    6.70529 
 h                     4.86075  -0.49142   5.62788 
 h                     2.88855   0.22276   14.00501 
 h                     1.55916   0.43285   12.90347 
 
 ITRead=  0  0  0  0  0  0  0  0  0  0  0  0  0  0  0  0  0
 MicOpt= -1 -1 -1 -1 -1 -1 -1 -1 -1 -1 -1 -1 -1 -1 -1 -1 -1
 NAtoms=     17 NQM=       17 NQMF=       0 NMMI=      0 NMMIF=      0
                NMic=       0 NMicF=      0.
                    Isotopes and Nuclear Properties:
 (Nuclear quadrupole moments (NQMom) in fm**2, nuclear magnetic moments (NMagM)
  in nuclear magnetons)

  Atom         1           2           3           4           5           6           7           8           9          10
 IAtWgt=          12          16          14          12          12          16          14          12          12          12
 AtmWgt=  12.0000000  15.9949146  14.0030740  12.0000000  12.0000000  15.9949146  14.0030740  12.0000000  12.0000000  12.0000000
 NucSpn=           0           0           2           0           0           0           2           0           0           0
 AtZEff=  -0.0000000  -0.0000000  -0.0000000  -0.0000000  -0.0000000  -0.0000000  -0.0000000  -0.0000000  -0.0000000  -0.0000000
 NQMom=    0.0000000   0.0000000   2.0440000   0.0000000   0.0000000   0.0000000   2.0440000   0.0000000   0.0000000   0.0000000
 NMagM=    0.0000000   0.0000000   0.4037610   0.0000000   0.0000000   0.0000000   0.4037610   0.0000000   0.0000000   0.0000000
 AtZNuc=   6.0000000   8.0000000   7.0000000   6.0000000   6.0000000   8.0000000   7.0000000   6.0000000   6.0000000   6.0000000

  Atom        11          12          13          14          15          16          17
 IAtWgt=          16          14          12           1           1           1           1
 AtmWgt=  15.9949146  14.0030740  12.0000000   1.0078250   1.0078250   1.0078250   1.0078250
 NucSpn=           0           2           0           1           1           1           1
 AtZEff=  -0.0000000  -0.0000000  -0.0000000  -0.0000000  -0.0000000  -0.0000000  -0.0000000
 NQMom=    0.0000000   2.0440000   0.0000000   0.0000000   0.0000000   0.0000000   0.0000000
 NMagM=    0.0000000   0.4037610   0.0000000   2.7928460   2.7928460   2.7928460   2.7928460
 AtZNuc=   8.0000000   7.0000000   6.0000000   1.0000000   1.0000000   1.0000000   1.0000000
 Leave Link  101 at Wed Jan  5 16:30:23 2022, MaxMem=   402653184 cpu:               5.5 elap:               1.0
 (Enter /work/01114/jfonner/frontera/gaussian/16rC.01/g16/l202.exe)
                          Input orientation:                          
 ---------------------------------------------------------------------
 Center     Atomic      Atomic             Coordinates (Angstroms)
 Number     Number       Type             X           Y           Z
 ---------------------------------------------------------------------
      1          6           0        0.840000   -0.854000    6.792000
      2          8           0        1.027000   -2.022000    6.720000
      3          7           0        1.810000    0.002000    7.023000
      4          6           0        3.191000   -0.429000    7.101000
      5          6           0        3.911000    0.258000    8.229000
      6          8           0        4.064000    1.478000    8.228000
      7          7           0        4.364000   -0.527000    9.189000
      8          6           0        5.067000    0.020000   10.326000
      9          6           0        3.871000   -0.103000    5.748000
     10          6           0        4.271000    0.817000   11.296000
     11          8           0        4.359000    2.033000   11.367000
     12          7           0        3.492000    0.104000   12.073000
     13          6           0        2.585000    0.677000   13.085000
     14          1           0       -0.155413   -0.471203    6.705289
     15          1           0        4.860748   -0.491419    5.627878
     16          1           0        2.888547    0.222761   14.005014
     17          1           0        1.559163    0.432854   12.903473
 ---------------------------------------------------------------------
                    Distance matrix (angstroms):
                    1          2          3          4          5
     1  C    0.000000
     2  O    1.185064   0.000000
     3  N    1.314153   2.191227   0.000000
     4  C    2.409005   2.713983   1.448795   0.000000
     5  C    3.568270   3.974033   2.436016   1.504245   0.000000
     6  O    4.230189   4.873134   2.951460   2.380947   1.229557
     7  N    4.274472   4.412092   3.390326   2.396931   1.320240
     8  C    5.578581   5.787452   4.638769   3.757872   2.406323
     9  C    3.292552   3.565905   2.425772   1.548963   2.507445
    10  C    5.903390   6.286751   4.997927   4.507432   3.138243
    11  O    6.453585   7.009983   5.430718   5.062057   3.632957
    12  N    5.986638   6.265039   5.323723   5.009538   3.869834
    13  C    6.707521   7.086973   6.148503   6.115450   5.051195
    14  H    1.070000   1.950202   2.046390   3.369993   4.403311
    15  H    4.201555   4.270016   3.390707   2.227565   2.868708
    16  H    7.575192   7.847021   7.068276   6.941303   5.865918
    17  H    6.286756   6.674193   5.901569   6.088873   5.235686
                    6          7          8          9         10
     6  O    0.000000
     7  N    2.243557   0.000000
     8  C    2.744700   1.444364   0.000000
     9  C    2.947407   3.501900   4.733247   0.000000
    10  C    3.145218   2.500887   1.486514   5.637970   0.000000
    11  O    3.201308   3.361147   2.374261   6.031070   1.221246
    12  N    4.122995   3.078311   2.353655   6.339725   1.311083
    13  C    5.139989   4.448963   3.768827   7.489577   2.462259
    14  H    4.890960   5.157231   6.373730   4.154995   6.505938
    15  H    3.357686   3.595777   4.730374   1.070000   5.846997
    16  H    6.027537   5.092455   4.280411   8.321636   3.098880
    17  H    5.406162   4.752446   4.372498   7.538735   3.175783
                   11         12         13         14         15
    11  O    0.000000
    12  N    2.229611   0.000000
    13  C    2.817328   1.474829   0.000000
    14  H    6.955754   6.515121   7.037680   0.000000
    15  H    6.289830   6.615708   7.883711   5.130604   0.000000
    16  H    3.521124   2.027545   1.070000   7.939349   8.635742
    17  H    3.572157   2.129246   1.070000   6.494196   8.042949
                   16         17
    16  H    0.000000
    17  H    1.739193   0.000000
 Stoichiometry    C7H4N3O3(1+)
 Framework group  C1[X(C7H4N3O3)]
 Deg. of freedom    45
 Full point group                 C1      NOp   1
 Largest Abelian subgroup         C1      NOp   1
 Largest concise Abelian subgroup C1      NOp   1
                         Standard orientation:                         
 ---------------------------------------------------------------------
 Center     Atomic      Atomic             Coordinates (Angstroms)
 Number     Number       Type             X           Y           Z
 ---------------------------------------------------------------------
      1          6           0       -3.032426    1.537740   -0.480872
      2          8           0       -3.364371    1.784399    0.629691
      3          7           0       -2.303354    0.486482   -0.781383
      4          6           0       -1.947861   -0.494694    0.223566
      5          6           0       -0.515906   -0.930433    0.073927
      6          8           0       -0.137564   -1.512263   -0.941031
      7          7           0        0.280485   -0.658661    1.091245
      8          6           0        1.677329   -1.024726    1.059431
      9          6           0       -2.900329   -1.706169    0.067305
     10          6           0        2.553088   -0.276419    0.119853
     11          8           0        2.977385   -0.774303   -0.911420
     12          7           0        2.842670    0.943266    0.503844
     13          6           0        3.663138    1.884567   -0.280954
     14          1           0       -3.296815    2.206659   -1.273050
     15          1           0       -2.828686   -2.446847    0.836177
     16          1           0        4.470093    2.145317    0.371528
     17          1           0        3.130997    2.775384   -0.542053
 ---------------------------------------------------------------------
 Rotational constants (GHZ):           1.4117695           0.4292374           0.3692049
 Leave Link  202 at Wed Jan  5 16:30:24 2022, MaxMem=   402653184 cpu:               2.9 elap:               0.5
 (Enter /work/01114/jfonner/frontera/gaussian/16rC.01/g16/l301.exe)
 Standard basis: 6-31G (6D, 7F)
 Ernie: Thresh=  0.10000D-02 Tol=  0.10000D-05 Strict=F.
 There are   125 symmetry adapted cartesian basis functions of A   symmetry.
 There are   125 symmetry adapted basis functions of A   symmetry.
   125 basis functions,   302 primitive gaussians,   125 cartesian basis functions
    45 alpha electrons       45 beta electrons
       nuclear repulsion energy       679.7524782249 Hartrees.
 IExCor= 4639 DFT=T Ex+Corr=wB97XD ExCW=0 ScaHFX=  1.000000
 ScaDFX=  1.000000  1.000000  1.000000  1.000000 ScalE2=  1.000000  1.000000
 IRadAn=      5 IRanWt=     -1 IRanGd=            0 ICorTp=0 IEmpDi=121
 HFx  wShort=  0.000000 wLong=  0.200000 cFull=  0.222036 cShort=  0.000000 cLong=  0.777964
 DFx  wShort=  0.000000 wLong=  0.200000 cFull=  0.000000 cShort=  0.000000 cLong=  1.000000
 NAtoms=   17 NActive=   17 NUniq=   17 SFac= 1.00D+00 NAtFMM=   60 NAOKFM=F Big=F
 Integral buffers will be    131072 words long.
 Raffenetti 2 integral format.
 Two-electron integral symmetry is turned on.
 R6Disp:  Grimme-D2 Dispersion energy=       -0.0066273515 Hartrees.
 Nuclear repulsion after empirical dispersion term =      679.7458508733 Hartrees.
 Leave Link  301 at Wed Jan  5 16:30:24 2022, MaxMem=   402653184 cpu:               3.6 elap:               0.6
 (Enter /work/01114/jfonner/frontera/gaussian/16rC.01/g16/l302.exe)
 NPDir=0 NMtPBC=     1 NCelOv=     1 NCel=       1 NClECP=     1 NCelD=      1
         NCelK=      1 NCelE2=     1 NClLst=     1 CellRange=     0.0.
 One-electron integrals computed using PRISM.
 One-electron integral symmetry used in STVInt
 NBasis=   125 RedAO= T EigKep=  4.40D-03  NBF=   125
 NBsUse=   125 1.00D-06 EigRej= -1.00D+00 NBFU=   125
 Precomputing XC quadrature grid using
 IXCGrd= 4 IRadAn=           5 IRanWt=          -1 IRanGd=           0 AccXCQ= 1.00D-12.
 Generated NRdTot=       0 NPtTot=           0 NUsed=           0 NTot=          32
 NSgBfM=   124   124   124   124   124 MxSgAt=    17 MxSgA2=    17.
 Leave Link  302 at Wed Jan  5 16:30:34 2022, MaxMem=   402653184 cpu:              54.4 elap:               9.6
 (Enter /work/01114/jfonner/frontera/gaussian/16rC.01/g16/l303.exe)
 DipDrv:  MaxL=1.
 Leave Link  303 at Wed Jan  5 16:30:35 2022, MaxMem=   402653184 cpu:               7.8 elap:               1.3
 (Enter /work/01114/jfonner/frontera/gaussian/16rC.01/g16/l401.exe)
 ExpMin= 1.61D-01 ExpMax= 5.48D+03 ExpMxC= 8.25D+02 IAcc=3 IRadAn=         5 AccDes= 0.00D+00
 Harris functional with IExCor= 4639 and IRadAn=       5 diagonalized for initial guess.
 HarFok:  IExCor= 4639 AccDes= 0.00D+00 IRadAn=         5 IDoV= 1 UseB2=F ITyADJ=14
 ICtDFT=  3500011 ScaDFX=  1.000000  1.000000  1.000000  1.000000
 FoFCou: FMM=F IPFlag=           0 FMFlag=      100000 FMFlg1=           0
         NFxFlg=           0 DoJE=T BraDBF=F KetDBF=T FulRan=T
         wScrn=  0.000000 ICntrl=       500 IOpCl=  0 I1Cent=   200000004 NGrid=           0
         NMat0=    1 NMatS0=      1 NMatT0=    0 NMatD0=    1 NMtDS0=    0 NMtDT0=    0
 Petite list used in FoFCou.
 Harris En= -632.316687609456    
 JPrj=0 DoOrth=F DoCkMO=F.
 Leave Link  401 at Wed Jan  5 16:30:49 2022, MaxMem=   402653184 cpu:              79.3 elap:              14.2
 (Enter /work/01114/jfonner/frontera/gaussian/16rC.01/g16/l502.exe)
 Integral symmetry usage will be decided dynamically.
 Closed shell SCF:
 Using DIIS extrapolation, IDIIS=  1040.
 NGot=   402653184 LenX=   402612962 LenY=   402596896
 Requested convergence on RMS density matrix=1.00D-08 within 128 cycles.
 Requested convergence on MAX density matrix=1.00D-06.
 Requested convergence on             energy=1.00D-06.
 No special actions if energy rises.
 Fock matrices will be formed incrementally for  20 cycles.
 Integral accuracy reduced to 1.0D-05 until final iterations.

 Cycle   1  Pass 0  IDiag  1:
 FoFJK:  IHMeth= 1 ICntrl=       0 DoSepK=T KAlg= 0 I1Cent=           0 FoldK=F
 IRaf=         1 NMat=       1 IRICut=       1 DoRegI=T DoRafI=F ISym2E= 0 IDoP0=0 IntGTp=1.
 FoFCou: FMM=F IPFlag=           0 FMFlag=      100000 FMFlg1=           0
         NFxFlg=           0 DoJE=T BraDBF=F KetDBF=F FulRan=T
         wScrn=  0.000000 ICntrl=       500 IOpCl=  0 I1Cent=           0 NGrid=           0
         NMat0=    1 NMatS0=      1 NMatT0=    0 NMatD0=    1 NMtDS0=    0 NMtDT0=    0
 Symmetry not used in FoFCou.
 E= -657.328701778205    
 DIIS: error= 2.56D-02 at cycle   1 NSaved=   1.
 NSaved= 1 IEnMin= 1 EnMin= -657.328701778205     IErMin= 1 ErrMin= 2.56D-02
 ErrMax= 2.56D-02  0.00D+00 EMaxC= 1.00D-01 BMatC= 3.79D-01 BMatP= 3.79D-01
 IDIUse=3 WtCom= 7.44D-01 WtEn= 2.56D-01
 Coeff-Com:  0.100D+01
 Coeff-En:   0.100D+01
 Coeff:      0.100D+01
 Gap=     0.239 Goal=   None    Shift=    0.000
 GapD=    0.239 DampG=1.000 DampE=0.500 DampFc=0.5000 IDamp=-1.
 Damping current iteration by 5.00D-01
 RMSDP=1.69D-02 MaxDP=4.04D-01              OVMax= 8.46D-01

 Cycle   2  Pass 0  IDiag  1:
 RMSU=  8.44D-03    CP:  9.89D-01
 E= -656.290634860718     Delta-E=        1.038066917487 Rises=F Damp=T
 DIIS: error= 4.58D-02 at cycle   2 NSaved=   2.
 NSaved= 2 IEnMin= 1 EnMin= -657.328701778205     IErMin= 1 ErrMin= 2.56D-02
 ErrMax= 4.58D-02  0.00D+00 EMaxC= 1.00D-01 BMatC= 4.58D-01 BMatP= 3.79D-01
 IDIUse=2 WtCom= 0.00D+00 WtEn= 1.00D+00
 Coeff-En:   0.829D+00 0.171D+00
 Coeff:      0.829D+00 0.171D+00
 Gap=    -0.077 Goal=   None    Shift=    0.000
 RMSDP=8.23D-03 MaxDP=1.90D-01 DE= 1.04D+00 OVMax= 9.82D-01

 Cycle   3  Pass 0  IDiag  1:
 RMSU=  7.09D-03    CP:  1.02D+00  5.33D-01
 E= -657.463540357225     Delta-E=       -1.172905496506 Rises=F Damp=F
 DIIS: error= 5.36D-02 at cycle   3 NSaved=   3.
 NSaved= 3 IEnMin= 3 EnMin= -657.463540357225     IErMin= 1 ErrMin= 2.56D-02
 ErrMax= 5.36D-02  0.00D+00 EMaxC= 1.00D-01 BMatC= 2.36D-01 BMatP= 3.79D-01
 IDIUse=3 WtCom= 4.64D-01 WtEn= 5.36D-01
 Coeff-Com:  0.365D+00 0.155D+00 0.479D+00
 Coeff-En:   0.335D+00 0.000D+00 0.665D+00
 Coeff:      0.349D+00 0.721D-01 0.579D+00
 Gap=     0.038 Goal=   None    Shift=    0.000
 RMSDP=6.27D-03 MaxDP=1.35D-01 DE=-1.17D+00 OVMax= 2.03D-01

 Cycle   4  Pass 0  IDiag  1:
 RMSU=  4.41D-03    CP:  1.01D+00  2.54D-01  4.71D-01
 E= -657.521677233637     Delta-E=       -0.058136876413 Rises=F Damp=F
 DIIS: error= 5.04D-02 at cycle   4 NSaved=   4.
 NSaved= 4 IEnMin= 4 EnMin= -657.521677233637     IErMin= 1 ErrMin= 2.56D-02
 ErrMax= 5.04D-02  0.00D+00 EMaxC= 1.00D-01 BMatC= 1.89D-01 BMatP= 2.36D-01
 IDIUse=3 WtCom= 4.96D-01 WtEn= 5.04D-01
 Coeff-Com:  0.960D-01 0.505D-01 0.421D+00 0.432D+00
 Coeff-En:   0.000D+00 0.000D+00 0.439D+00 0.561D+00
 Coeff:      0.476D-01 0.250D-01 0.430D+00 0.497D+00
 Gap=     0.089 Goal=   None    Shift=    0.000
 RMSDP=3.21D-03 MaxDP=8.57D-02 DE=-5.81D-02 OVMax= 1.21D-01

 Cycle   5  Pass 0  IDiag  1:
 RMSU=  1.46D-03    CP:  1.02D+00  3.75D-01  6.92D-01  5.13D-01
 E= -657.676310845495     Delta-E=       -0.154633611858 Rises=F Damp=F
 DIIS: error= 6.44D-03 at cycle   5 NSaved=   5.
 NSaved= 5 IEnMin= 5 EnMin= -657.676310845495     IErMin= 5 ErrMin= 6.44D-03
 ErrMax= 6.44D-03  0.00D+00 EMaxC= 1.00D-01 BMatC= 3.93D-03 BMatP= 1.89D-01
 IDIUse=3 WtCom= 9.36D-01 WtEn= 6.44D-02
 Coeff-Com:  0.920D-03 0.159D-03 0.960D-01 0.174D+00 0.728D+00
 Coeff-En:   0.000D+00 0.000D+00 0.000D+00 0.000D+00 0.100D+01
 Coeff:      0.861D-03 0.148D-03 0.899D-01 0.163D+00 0.746D+00
 Gap=     0.099 Goal=   None    Shift=    0.000
 RMSDP=8.00D-04 MaxDP=1.16D-02 DE=-1.55D-01 OVMax= 3.81D-02

 Cycle   6  Pass 0  IDiag  1:
 RMSU=  6.40D-04    CP:  1.02D+00  3.93D-01  7.00D-01  6.15D-01  9.77D-01
 E= -657.679533144909     Delta-E=       -0.003222299414 Rises=F Damp=F
 DIIS: error= 2.75D-03 at cycle   6 NSaved=   6.
 NSaved= 6 IEnMin= 6 EnMin= -657.679533144909     IErMin= 6 ErrMin= 2.75D-03
 ErrMax= 2.75D-03  0.00D+00 EMaxC= 1.00D-01 BMatC= 1.45D-03 BMatP= 3.93D-03
 IDIUse=3 WtCom= 9.72D-01 WtEn= 2.75D-02
 Coeff-Com: -0.555D-02-0.142D-01 0.679D-02 0.355D-01 0.443D+00 0.534D+00
 Coeff-En:   0.000D+00 0.000D+00 0.000D+00 0.000D+00 0.151D+00 0.849D+00
 Coeff:     -0.540D-02-0.138D-01 0.660D-02 0.345D-01 0.435D+00 0.543D+00
 Gap=     0.105 Goal=   None    Shift=    0.000
 RMSDP=4.10D-04 MaxDP=5.39D-03 DE=-3.22D-03 OVMax= 2.49D-02

 Cycle   7  Pass 0  IDiag  1:
 RMSU=  3.18D-04    CP:  1.02D+00  3.99D-01  7.01D-01  6.30D-01  1.14D+00
                    CP:  8.98D-01
 E= -657.681046223398     Delta-E=       -0.001513078488 Rises=F Damp=F
 DIIS: error= 1.75D-03 at cycle   7 NSaved=   7.
 NSaved= 7 IEnMin= 7 EnMin= -657.681046223398     IErMin= 7 ErrMin= 1.75D-03
 ErrMax= 1.75D-03  0.00D+00 EMaxC= 1.00D-01 BMatC= 5.67D-04 BMatP= 1.45D-03
 IDIUse=3 WtCom= 9.83D-01 WtEn= 1.75D-02
 Coeff-Com:  0.713D-02-0.213D-01 0.378D-02-0.197D-02 0.137D+00 0.291D+00
 Coeff-Com:  0.584D+00
 Coeff-En:   0.000D+00 0.000D+00 0.000D+00 0.000D+00 0.000D+00 0.000D+00
 Coeff-En:   0.100D+01
 Coeff:      0.700D-02-0.209D-01 0.371D-02-0.194D-02 0.135D+00 0.286D+00
 Coeff:      0.591D+00
 Gap=     0.110 Goal=   None    Shift=    0.000
 RMSDP=2.45D-04 MaxDP=2.97D-03 DE=-1.51D-03 OVMax= 1.72D-02

 Cycle   8  Pass 0  IDiag  1:
 RMSU=  1.28D-04    CP:  1.02D+00  4.05D-01  7.00D-01  6.39D-01  1.21D+00
                    CP:  1.13D+00  1.27D+00
 E= -657.681134627773     Delta-E=       -0.000088404375 Rises=F Damp=F
 DIIS: error= 1.88D-03 at cycle   8 NSaved=   8.
 NSaved= 8 IEnMin= 8 EnMin= -657.681134627773     IErMin= 7 ErrMin= 1.75D-03
 ErrMax= 1.88D-03  0.00D+00 EMaxC= 1.00D-01 BMatC= 6.47D-04 BMatP= 5.67D-04
 IDIUse=3 WtCom= 9.83D-01 WtEn= 1.75D-02
 Coeff-Com:  0.112D-01-0.242D-01 0.859D-02-0.412D-02 0.687D-01 0.175D+00
 Coeff-Com:  0.432D+00 0.333D+00
 Coeff-En:   0.000D+00 0.000D+00 0.000D+00 0.000D+00 0.000D+00 0.000D+00
 Coeff-En:   0.000D+00 0.100D+01
 Coeff:      0.110D-01-0.238D-01 0.844D-02-0.405D-02 0.675D-01 0.172D+00
 Coeff:      0.424D+00 0.345D+00
 Gap=     0.112 Goal=   None    Shift=    0.000
 RMSDP=1.13D-04 MaxDP=1.21D-03 DE=-8.84D-05 OVMax= 8.91D-03

 Cycle   9  Pass 0  IDiag  1:
 RMSU=  4.16D-05    CP:  1.02D+00  4.07D-01  6.99D-01  6.43D-01  1.23D+00
                    CP:  1.23D+00  1.48D+00  1.08D+00
 E= -657.681185605405     Delta-E=       -0.000050977632 Rises=F Damp=F
 DIIS: error= 1.95D-03 at cycle   9 NSaved=   9.
 NSaved= 9 IEnMin= 9 EnMin= -657.681185605405     IErMin= 7 ErrMin= 1.75D-03
 ErrMax= 1.95D-03  0.00D+00 EMaxC= 1.00D-01 BMatC= 6.64D-04 BMatP= 5.67D-04
 IDIUse=3 WtCom= 9.83D-01 WtEn= 1.75D-02
 Coeff-Com:  0.113D-01-0.239D-01 0.700D-02-0.742D-02 0.525D-01 0.178D+00
 Coeff-Com:  0.537D+00 0.556D+00-0.310D+00
 Coeff-En:   0.000D+00 0.000D+00 0.000D+00 0.000D+00 0.000D+00 0.000D+00
 Coeff-En:   0.000D+00 0.000D+00 0.100D+01
 Coeff:      0.111D-01-0.235D-01 0.688D-02-0.729D-02 0.516D-01 0.175D+00
 Coeff:      0.527D+00 0.546D+00-0.287D+00
 Gap=     0.112 Goal=   None    Shift=    0.000
 RMSDP=2.65D-05 MaxDP=2.84D-04 DE=-5.10D-05 OVMax= 2.13D-03

 Cycle  10  Pass 0  IDiag  1:
 RMSU=  8.01D-06    CP:  1.02D+00  4.07D-01  6.99D-01  6.42D-01  1.23D+00
                    CP:  1.21D+00  1.43D+00  1.01D+00  8.78D-01
 E= -657.681163756827     Delta-E=        0.000021848578 Rises=F Damp=F
 DIIS: error= 1.96D-03 at cycle  10 NSaved=  10.
 NSaved=10 IEnMin= 9 EnMin= -657.681185605405     IErMin= 7 ErrMin= 1.75D-03
 ErrMax= 1.96D-03  0.00D+00 EMaxC= 1.00D-01 BMatC= 6.66D-04 BMatP= 5.67D-04
 IDIUse=3 WtCom= 9.83D-01 WtEn= 1.75D-02
 Rare condition: small coef for last iteration:  0.000D+00
 Coeff-Com:  0.113D-01-0.239D-01 0.702D-02-0.732D-02 0.533D-01 0.178D+00
 Coeff-Com:  0.534D+00 0.548D+00-0.255D+00-0.462D-01
 Coeff-En:   0.000D+00 0.000D+00 0.000D+00 0.000D+00 0.000D+00 0.000D+00
 Coeff-En:   0.000D+00 0.000D+00 0.000D+00 0.100D+01
 Coeff:      0.113D-01-0.239D-01 0.702D-02-0.732D-02 0.533D-01 0.178D+00
 Coeff:      0.534D+00 0.548D+00-0.255D+00-0.462D-01
 Gap=     0.111 Goal=   None    Shift=    0.000
 RMSDP=1.35D-05 MaxDP=2.18D-04 DE= 2.18D-05 OVMax= 8.91D-04

 Cycle  11  Pass 0  IDiag  1:
 RMSU=  1.05D-05    CP:  1.02D+00  4.07D-01  7.00D-01  6.44D-01  1.23D+00
                    CP:  1.21D+00  1.43D+00  1.01D+00  8.51D-01  1.39D+00
 E= -657.681090885884     Delta-E=        0.000072870944 Rises=F Damp=F
 DIIS: error= 2.05D-03 at cycle  11 NSaved=  11.
 NSaved=11 IEnMin= 9 EnMin= -657.681185605405     IErMin= 7 ErrMin= 1.75D-03
 ErrMax= 2.05D-03  0.00D+00 EMaxC= 1.00D-01 BMatC= 7.28D-04 BMatP= 5.67D-04
 IDIUse=3 WtCom= 9.83D-01 WtEn= 1.75D-02
 Large coefficients: NSaved= 11 BigCof=   19.94 CofMax=   10.00 Det=-1.26D-07
 Inversion failed.  Reducing to 10 matrices.
 Large coefficients: NSaved= 10 BigCof=   20.88 CofMax=   10.00 Det=-1.38D-07
 Inversion failed.  Reducing to  9 matrices.
 Large coefficients: NSaved=  9 BigCof=   20.83 CofMax=   10.00 Det=-1.60D-07
 Inversion failed.  Reducing to  8 matrices.
 Large coefficients: NSaved=  8 BigCof=   20.94 CofMax=   10.00 Det=-1.74D-07
 Inversion failed.  Reducing to  7 matrices.
 Large coefficients: NSaved=  7 BigCof=   21.17 CofMax=   10.00 Det=-2.05D-07
 Inversion failed.  Reducing to  6 matrices.
 Large coefficients: NSaved=  6 BigCof=   22.21 CofMax=   10.00 Det=-2.42D-07
 Inversion failed.  Reducing to  5 matrices.
 Large coefficients: NSaved=  5 BigCof=   22.43 CofMax=   10.00 Det=-2.44D-07
 Inversion failed.  Reducing to  4 matrices.
 Large coefficients: NSaved=  4 BigCof=   20.95 CofMax=   10.00 Det=-3.04D-07
 Inversion failed.  Reducing to  3 matrices.
 Large coefficients: NSaved=  3 BigCof=   21.02 CofMax=   10.00 Det=-3.60D-07
 Inversion failed.  Reducing to  2 matrices.
 Large coefficients: NSaved=  2 BigCof=   22.04 CofMax=   10.00 Det=-1.43D-06
 Coeff-Com:  0.220D+02-0.210D+02
 Coeff-En:   0.000D+00 0.100D+01
 Coeff:      0.217D+02-0.207D+02
 Gap=     0.125 Goal=   None    Shift=    0.000
 RMSDP=4.23D-04 MaxDP=4.58D-03 DE= 7.29D-05 OVMax= 2.54D-02

 Cycle  12  Pass 0  IDiag  1:
 RMSU=  2.97D-04    CP:  1.02D+00  3.99D-01  6.91D-01  6.07D-01  1.18D+00
                    CP:  1.25D+00  1.70D+00  1.58D+00  2.28D+00 -3.00D+00
                    CP: -3.00D+00
 E= -657.682149861289     Delta-E=       -0.001058975405 Rises=F Damp=F
 DIIS: error= 3.58D-04 at cycle  12 NSaved=   3.
 NSaved= 3 IEnMin= 3 EnMin= -657.682149861289     IErMin= 3 ErrMin= 3.58D-04
 ErrMax= 3.58D-04  0.00D+00 EMaxC= 1.00D-01 BMatC= 3.09D-05 BMatP= 6.66D-04
 IDIUse=3 WtCom= 9.96D-01 WtEn= 3.58D-03
 Large coefficients: NSaved=  3 BigCof=   10.60 CofMax=   10.00 Det=-1.52D-07
 Inversion failed.  Reducing to  2 matrices.
 Coeff-Com:  0.366D-01 0.963D+00
 Coeff-En:   0.000D+00 0.100D+01
 Coeff:      0.365D-01 0.963D+00
 Gap=     0.123 Goal=   None    Shift=    0.000
 RMSDP=1.37D-04 MaxDP=1.79D-03 DE=-1.06D-03 OVMax= 9.10D-03

 Cycle  13  Pass 0  IDiag  1:
 RMSU=  8.64D-05    CP:  1.02D+00  4.00D-01  6.88D-01  6.13D-01  1.19D+00
                    CP:  1.29D+00  1.93D+00  1.59D+00  3.00D+00 -3.00D+00
                    CP: -3.00D+00  1.07D+00
 E= -657.682195341108     Delta-E=       -0.000045479818 Rises=F Damp=F
 DIIS: error= 7.10D-04 at cycle  13 NSaved=   3.
 NSaved= 3 IEnMin= 3 EnMin= -657.682195341108     IErMin= 2 ErrMin= 3.58D-04
 ErrMax= 7.10D-04  0.00D+00 EMaxC= 1.00D-01 BMatC= 8.52D-05 BMatP= 3.09D-05
 IDIUse=3 WtCom= 9.96D-01 WtEn= 3.58D-03
 Coeff-Com:  0.179D-01 0.632D+00 0.350D+00
 Coeff-En:   0.000D+00 0.148D+00 0.852D+00
 Coeff:      0.179D-01 0.630D+00 0.352D+00
 Gap=     0.123 Goal=   None    Shift=    0.000
 RMSDP=6.83D-05 MaxDP=1.24D-03 DE=-4.55D-05 OVMax= 2.48D-03

 Cycle  14  Pass 0  IDiag  1:
 RMSU=  3.97D-05    CP:  1.02D+00  4.01D-01  6.90D-01  6.11D-01  1.20D+00
                    CP:  1.33D+00  1.92D+00  1.88D+00  3.00D+00 -3.00D+00
                    CP: -3.00D+00  1.09D+00  7.92D-01
 E= -657.682284076740     Delta-E=       -0.000088735633 Rises=F Damp=F
 DIIS: error= 2.56D-04 at cycle  14 NSaved=   4.
 NSaved= 4 IEnMin= 4 EnMin= -657.682284076740     IErMin= 4 ErrMin= 2.56D-04
 ErrMax= 2.56D-04  0.00D+00 EMaxC= 1.00D-01 BMatC= 5.57D-06 BMatP= 3.09D-05
 IDIUse=3 WtCom= 9.97D-01 WtEn= 2.56D-03
 Coeff-Com: -0.364D-01 0.120D-02 0.744D-01 0.961D+00
 Coeff-En:   0.000D+00 0.000D+00 0.000D+00 0.100D+01
 Coeff:     -0.363D-01 0.119D-02 0.742D-01 0.961D+00
 Gap=     0.124 Goal=   None    Shift=    0.000
 RMSDP=8.72D-05 MaxDP=1.00D-03 DE=-8.87D-05 OVMax= 7.36D-03

 Cycle  15  Pass 0  IDiag  1:
 RMSU=  3.51D-05    CP:  1.02D+00  4.02D-01  6.90D-01  6.13D-01  1.21D+00
                    CP:  1.37D+00  2.05D+00  2.03D+00  3.00D+00 -3.00D+00
                    CP: -3.00D+00  1.21D+00  1.21D+00  1.68D+00
 E= -657.682336848034     Delta-E=       -0.000052771294 Rises=F Damp=F
 DIIS: error= 1.66D-04 at cycle  15 NSaved=   5.
 NSaved= 5 IEnMin= 5 EnMin= -657.682336848034     IErMin= 5 ErrMin= 1.66D-04
 ErrMax= 1.66D-04  0.00D+00 EMaxC= 1.00D-01 BMatC= 5.33D-06 BMatP= 5.57D-06
 IDIUse=3 WtCom= 9.98D-01 WtEn= 1.66D-03
 Coeff-Com: -0.102D+00-0.602D+00-0.298D+00 0.866D+00 0.114D+01
 Coeff-En:   0.000D+00 0.000D+00 0.000D+00 0.000D+00 0.100D+01
 Coeff:     -0.101D+00-0.601D+00-0.297D+00 0.864D+00 0.113D+01
 Gap=     0.125 Goal=   None    Shift=    0.000
 RMSDP=1.63D-04 MaxDP=1.79D-03 DE=-5.28D-05 OVMax= 1.35D-02

 Cycle  16  Pass 0  IDiag  1:
 RMSU=  1.72D-05    CP:  1.02D+00  4.04D-01  6.89D-01  6.12D-01  1.23D+00
                    CP:  1.46D+00  2.27D+00  2.47D+00  3.00D+00 -3.00D+00
                    CP: -3.00D+00  1.40D+00  2.13D+00  2.97D+00  2.06D+00
 E= -657.682397964357     Delta-E=       -0.000061116323 Rises=F Damp=F
 DIIS: error= 1.09D-04 at cycle  16 NSaved=   6.
 NSaved= 6 IEnMin= 6 EnMin= -657.682397964357     IErMin= 6 ErrMin= 1.09D-04
 ErrMax= 1.09D-04  0.00D+00 EMaxC= 1.00D-01 BMatC= 1.44D-06 BMatP= 5.33D-06
 IDIUse=3 WtCom= 9.99D-01 WtEn= 1.09D-03
 Coeff-Com: -0.701D-01-0.381D+00-0.193D+00 0.374D+00 0.632D+00 0.638D+00
 Coeff-En:   0.000D+00 0.000D+00 0.000D+00 0.000D+00 0.000D+00 0.100D+01
 Coeff:     -0.701D-01-0.380D+00-0.193D+00 0.373D+00 0.631D+00 0.639D+00
 Gap=     0.125 Goal=   None    Shift=    0.000
 RMSDP=5.71D-05 MaxDP=5.86D-04 DE=-6.11D-05 OVMax= 4.69D-03

 Cycle  17  Pass 0  IDiag  1:
 RMSU=  2.11D-05    CP:  1.02D+00  4.04D-01  6.88D-01  6.13D-01  1.24D+00
                    CP:  1.48D+00  2.34D+00  2.62D+00  3.00D+00 -3.00D+00
                    CP: -3.00D+00  1.48D+00  2.43D+00  3.00D+00  2.54D+00
                    CP:  1.38D+00
 E= -657.682407498044     Delta-E=       -0.000009533686 Rises=F Damp=F
 DIIS: error= 5.39D-05 at cycle  17 NSaved=   7.
 NSaved= 7 IEnMin= 7 EnMin= -657.682407498044     IErMin= 7 ErrMin= 5.39D-05
 ErrMax= 5.39D-05  0.00D+00 EMaxC= 1.00D-01 BMatC= 4.24D-07 BMatP= 1.44D-06
 IDIUse=1 WtCom= 1.00D+00 WtEn= 0.00D+00
 Coeff-Com: -0.454D-02 0.631D-01 0.432D-01-0.108D+00-0.200D+00 0.340D+00
 Coeff-Com:  0.866D+00
 Coeff:     -0.454D-02 0.631D-01 0.432D-01-0.108D+00-0.200D+00 0.340D+00
 Coeff:      0.866D+00
 Gap=     0.126 Goal=   None    Shift=    0.000
 RMSDP=2.92D-05 MaxDP=3.06D-04 DE=-9.53D-06 OVMax= 2.38D-03

 Cycle  18  Pass 0  IDiag  1:
 RMSU=  7.06D-06    CP:  1.02D+00  4.04D-01  6.88D-01  6.12D-01  1.24D+00
                    CP:  1.49D+00  2.37D+00  2.68D+00  3.00D+00 -3.00D+00
                    CP: -3.00D+00  1.52D+00  2.60D+00  3.00D+00  2.80D+00
                    CP:  1.94D+00  1.51D+00
 E= -657.682410554550     Delta-E=       -0.000003056507 Rises=F Damp=F
 DIIS: error= 4.45D-05 at cycle  18 NSaved=   8.
 NSaved= 8 IEnMin= 8 EnMin= -657.682410554550     IErMin= 8 ErrMin= 4.45D-05
 ErrMax= 4.45D-05  0.00D+00 EMaxC= 1.00D-01 BMatC= 1.23D-07 BMatP= 4.24D-07
 IDIUse=1 WtCom= 1.00D+00 WtEn= 0.00D+00
 Coeff-Com:  0.174D-01 0.130D+00 0.738D-01-0.156D+00-0.274D+00-0.176D-01
 Coeff-Com:  0.475D+00 0.752D+00
 Coeff:      0.174D-01 0.130D+00 0.738D-01-0.156D+00-0.274D+00-0.176D-01
 Coeff:      0.475D+00 0.752D+00
 Gap=     0.126 Goal=   None    Shift=    0.000
 RMSDP=1.80D-05 MaxDP=1.92D-04 DE=-3.06D-06 OVMax= 1.35D-03

 Cycle  19  Pass 0  IDiag  1:
 RMSU=  3.25D-06    CP:  1.02D+00  4.04D-01  6.88D-01  6.12D-01  1.24D+00
                    CP:  1.50D+00  2.37D+00  2.72D+00  3.00D+00 -3.00D+00
                    CP: -3.00D+00  1.54D+00  2.70D+00  3.00D+00  2.93D+00
                    CP:  2.36D+00  1.88D+00  1.72D+00
 E= -657.682411835166     Delta-E=       -0.000001280616 Rises=F Damp=F
 DIIS: error= 3.42D-05 at cycle  19 NSaved=   9.
 NSaved= 9 IEnMin= 9 EnMin= -657.682411835166     IErMin= 9 ErrMin= 3.42D-05
 ErrMax= 3.42D-05  0.00D+00 EMaxC= 1.00D-01 BMatC= 7.20D-08 BMatP= 1.23D-07
 IDIUse=1 WtCom= 1.00D+00 WtEn= 0.00D+00
 Coeff-Com:  0.149D-01 0.418D-01 0.202D-01-0.555D-01-0.566D-01-0.166D+00
 Coeff-Com: -0.567D-01 0.464D+00 0.795D+00
 Coeff:      0.149D-01 0.418D-01 0.202D-01-0.555D-01-0.566D-01-0.166D+00
 Coeff:     -0.567D-01 0.464D+00 0.795D+00
 Gap=     0.126 Goal=   None    Shift=    0.000
 RMSDP=1.46D-05 MaxDP=1.58D-04 DE=-1.28D-06 OVMax= 1.05D-03

 Cycle  20  Pass 0  IDiag  1:
 RMSU=  2.25D-06    CP:  1.02D+00  4.04D-01  6.88D-01  6.11D-01  1.24D+00
                    CP:  1.50D+00  2.38D+00  2.74D+00  3.00D+00 -3.00D+00
                    CP: -3.00D+00  1.55D+00  2.77D+00  3.00D+00  3.00D+00
                    CP:  2.66D+00  2.24D+00  2.42D+00  2.16D+00
 E= -657.682412476065     Delta-E=       -0.000000640899 Rises=F Damp=F
 DIIS: error= 2.77D-05 at cycle  20 NSaved=  10.
 NSaved=10 IEnMin=10 EnMin= -657.682412476065     IErMin=10 ErrMin= 2.77D-05
 ErrMax= 2.77D-05  0.00D+00 EMaxC= 1.00D-01 BMatC= 4.35D-08 BMatP= 7.20D-08
 IDIUse=1 WtCom= 1.00D+00 WtEn= 0.00D+00
 Coeff-Com:  0.748D-03-0.728D-01-0.441D-01 0.775D-01 0.187D+00-0.121D+00
 Coeff-Com: -0.400D+00-0.225D+00 0.654D+00 0.944D+00
 Coeff:      0.748D-03-0.728D-01-0.441D-01 0.775D-01 0.187D+00-0.121D+00
 Coeff:     -0.400D+00-0.225D+00 0.654D+00 0.944D+00
 Gap=     0.126 Goal=   None    Shift=    0.000
 RMSDP=1.45D-05 MaxDP=1.39D-04 DE=-6.41D-07 OVMax= 9.22D-04

 Initial convergence to 1.5D-05 achieved.  Increase integral accuracy.
 Cycle  21  Pass 1  IDiag  1:
 E= -657.682409137813     Delta-E=        0.000003338252 Rises=F Damp=F
 DIIS: error= 1.93D-05 at cycle   1 NSaved=   1.
 NSaved= 1 IEnMin= 1 EnMin= -657.682409137813     IErMin= 1 ErrMin= 1.93D-05
 ErrMax= 1.93D-05  0.00D+00 EMaxC= 1.00D-01 BMatC= 4.42D-08 BMatP= 4.42D-08
 IDIUse=1 WtCom= 1.00D+00 WtEn= 0.00D+00
 Coeff-Com:  0.100D+01
 Coeff:      0.100D+01
 Gap=     0.126 Goal=   None    Shift=    0.000
 RMSDP=1.45D-05 MaxDP=1.39D-04 DE= 3.34D-06 OVMax= 2.10D-04

 Cycle  22  Pass 1  IDiag  1:
 RMSU=  6.89D-06    CP:  1.00D+00
 E= -657.682409277359     Delta-E=       -0.000000139547 Rises=F Damp=F
 DIIS: error= 1.47D-05 at cycle   2 NSaved=   2.
 NSaved= 2 IEnMin= 2 EnMin= -657.682409277359     IErMin= 2 ErrMin= 1.47D-05
 ErrMax= 1.47D-05  0.00D+00 EMaxC= 1.00D-01 BMatC= 6.64D-09 BMatP= 4.42D-08
 IDIUse=1 WtCom= 1.00D+00 WtEn= 0.00D+00
 Coeff-Com: -0.204D-02 0.100D+01
 Coeff:     -0.204D-02 0.100D+01
 Gap=     0.126 Goal=   None    Shift=    0.000
 RMSDP=3.32D-06 MaxDP=3.37D-05 DE=-1.40D-07 OVMax= 1.95D-04

 Cycle  23  Pass 1  IDiag  1:
 RMSU=  2.54D-06    CP:  1.00D+00  1.31D+00
 E= -657.682409335798     Delta-E=       -0.000000058439 Rises=F Damp=F
 DIIS: error= 1.40D-05 at cycle   3 NSaved=   3.
 NSaved= 3 IEnMin= 3 EnMin= -657.682409335798     IErMin= 3 ErrMin= 1.40D-05
 ErrMax= 1.40D-05  0.00D+00 EMaxC= 1.00D-01 BMatC= 9.72D-09 BMatP= 6.64D-09
 IDIUse=1 WtCom= 1.00D+00 WtEn= 0.00D+00
 Coeff-Com: -0.105D+00 0.641D+00 0.464D+00
 Coeff:     -0.105D+00 0.641D+00 0.464D+00
 Gap=     0.126 Goal=   None    Shift=    0.000
 RMSDP=1.60D-06 MaxDP=1.56D-05 DE=-5.84D-08 OVMax= 9.46D-05

 Cycle  24  Pass 1  IDiag  1:
 RMSU=  1.03D-06    CP:  1.00D+00  1.45D+00  1.30D+00
 E= -657.682409368037     Delta-E=       -0.000000032239 Rises=F Damp=F
 DIIS: error= 1.20D-05 at cycle   4 NSaved=   4.
 NSaved= 4 IEnMin= 4 EnMin= -657.682409368037     IErMin= 4 ErrMin= 1.20D-05
 ErrMax= 1.20D-05  0.00D+00 EMaxC= 1.00D-01 BMatC= 2.07D-09 BMatP= 6.64D-09
 IDIUse=1 WtCom= 1.00D+00 WtEn= 0.00D+00
 Coeff-Com: -0.325D-01-0.577D-01 0.563D-01 0.103D+01
 Coeff:     -0.325D-01-0.577D-01 0.563D-01 0.103D+01
 Gap=     0.126 Goal=   None    Shift=    0.000
 RMSDP=2.66D-06 MaxDP=2.56D-05 DE=-3.22D-08 OVMax= 1.86D-04

 Cycle  25  Pass 1  IDiag  1:
 RMSU=  5.12D-07    CP:  1.00D+00  1.66D+00  2.07D+00  1.92D+00
 E= -657.682409407306     Delta-E=       -0.000000039269 Rises=F Damp=F
 DIIS: error= 9.71D-06 at cycle   5 NSaved=   5.
 NSaved= 5 IEnMin= 5 EnMin= -657.682409407306     IErMin= 5 ErrMin= 9.71D-06
 ErrMax= 9.71D-06  0.00D+00 EMaxC= 1.00D-01 BMatC= 2.16D-09 BMatP= 2.07D-09
 IDIUse=1 WtCom= 1.00D+00 WtEn= 0.00D+00
 Coeff-Com:  0.732D-01-0.671D+00-0.433D+00 0.105D+01 0.985D+00
 Coeff:      0.732D-01-0.671D+00-0.433D+00 0.105D+01 0.985D+00
 Gap=     0.126 Goal=   None    Shift=    0.000
 RMSDP=4.43D-06 MaxDP=4.05D-05 DE=-3.93D-08 OVMax= 3.20D-04

 Cycle  26  Pass 1  IDiag  1:
 RMSU=  1.25D-06    CP:  1.00D+00  1.99D+00  3.00D+00  3.00D+00  1.89D+00
 E= -657.682409457207     Delta-E=       -0.000000049900 Rises=F Damp=F
 DIIS: error= 6.23D-06 at cycle   6 NSaved=   6.
 NSaved= 6 IEnMin= 6 EnMin= -657.682409457207     IErMin= 6 ErrMin= 6.23D-06
 ErrMax= 6.23D-06  0.00D+00 EMaxC= 1.00D-01 BMatC= 8.43D-10 BMatP= 2.07D-09
 IDIUse=1 WtCom= 1.00D+00 WtEn= 0.00D+00
 Coeff-Com:  0.669D-01-0.420D+00-0.326D+00 0.157D+00 0.619D+00 0.902D+00
 Coeff:      0.669D-01-0.420D+00-0.326D+00 0.157D+00 0.619D+00 0.902D+00
 Gap=     0.126 Goal=   None    Shift=    0.000
 RMSDP=3.58D-06 MaxDP=3.32D-05 DE=-4.99D-08 OVMax= 2.77D-04

 Cycle  27  Pass 1  IDiag  1:
 RMSU=  1.16D-06    CP:  1.00D+00  2.25D+00  3.00D+00  3.00D+00  3.00D+00
                    CP:  3.00D+00
 E= -657.682409483052     Delta-E=       -0.000000025846 Rises=F Damp=F
 DIIS: error= 3.91D-06 at cycle   7 NSaved=   7.
 NSaved= 7 IEnMin= 7 EnMin= -657.682409483052     IErMin= 7 ErrMin= 3.91D-06
 ErrMax= 3.91D-06  0.00D+00 EMaxC= 1.00D-01 BMatC= 3.26D-10 BMatP= 8.43D-10
 IDIUse=1 WtCom= 1.00D+00 WtEn= 0.00D+00
 Coeff-Com: -0.948D-02 0.179D+00 0.104D+00-0.463D+00-0.336D+00 0.405D+00
 Coeff-Com:  0.112D+01
 Coeff:     -0.948D-02 0.179D+00 0.104D+00-0.463D+00-0.336D+00 0.405D+00
 Coeff:      0.112D+01
 Gap=     0.126 Goal=   None    Shift=    0.000
 RMSDP=2.86D-06 MaxDP=2.93D-05 DE=-2.58D-08 OVMax= 2.43D-04

 Cycle  28  Pass 1  IDiag  1:
 RMSU=  2.18D-06    CP:  1.00D+00  2.44D+00  3.00D+00  3.00D+00  3.00D+00
                    CP:  3.00D+00  2.12D+00
 E= -657.682409495636     Delta-E=       -0.000000012584 Rises=F Damp=F
 DIIS: error= 2.36D-06 at cycle   8 NSaved=   8.
 NSaved= 8 IEnMin= 8 EnMin= -657.682409495636     IErMin= 8 ErrMin= 2.36D-06
 ErrMax= 2.36D-06  0.00D+00 EMaxC= 1.00D-01 BMatC= 1.44D-10 BMatP= 3.26D-10
 IDIUse=1 WtCom= 1.00D+00 WtEn= 0.00D+00
 Coeff-Com: -0.210D-01 0.176D+00 0.129D+00-0.204D+00-0.320D+00-0.966D-01
 Coeff-Com:  0.476D+00 0.860D+00
 Coeff:     -0.210D-01 0.176D+00 0.129D+00-0.204D+00-0.320D+00-0.966D-01
 Coeff:      0.476D+00 0.860D+00
 Gap=     0.126 Goal=   None    Shift=    0.000
 RMSDP=1.23D-06 MaxDP=1.39D-05 DE=-1.26D-08 OVMax= 1.17D-04

 Cycle  29  Pass 1  IDiag  1:
 RMSU=  3.00D-07    CP:  1.00D+00  2.51D+00  3.00D+00  3.00D+00  3.00D+00
                    CP:  3.00D+00  2.55D+00  1.45D+00
 E= -657.682409499416     Delta-E=       -0.000000003780 Rises=F Damp=F
 DIIS: error= 1.84D-06 at cycle   9 NSaved=   9.
 NSaved= 9 IEnMin= 9 EnMin= -657.682409499416     IErMin= 9 ErrMin= 1.84D-06
 ErrMax= 1.84D-06  0.00D+00 EMaxC= 1.00D-01 BMatC= 8.19D-11 BMatP= 1.44D-10
 IDIUse=1 WtCom= 1.00D+00 WtEn= 0.00D+00
 Coeff-Com: -0.599D-02-0.107D-01 0.122D-01 0.197D+00-0.297D-02-0.316D+00
 Coeff-Com: -0.383D+00 0.446D+00 0.106D+01
 Coeff:     -0.599D-02-0.107D-01 0.122D-01 0.197D+00-0.297D-02-0.316D+00
 Coeff:     -0.383D+00 0.446D+00 0.106D+01
 Gap=     0.126 Goal=   None    Shift=    0.000
 RMSDP=1.09D-06 MaxDP=1.30D-05 DE=-3.78D-09 OVMax= 1.08D-04

 Cycle  30  Pass 1  IDiag  1:
 RMSU=  2.36D-07    CP:  1.00D+00  2.56D+00  3.00D+00  3.00D+00  3.00D+00
                    CP:  3.00D+00  2.83D+00  1.84D+00  2.40D+00
 E= -657.682409502040     Delta-E=       -0.000000002623 Rises=F Damp=F
 DIIS: error= 1.21D-06 at cycle  10 NSaved=  10.
 NSaved=10 IEnMin=10 EnMin= -657.682409502040     IErMin=10 ErrMin= 1.21D-06
 ErrMax= 1.21D-06  0.00D+00 EMaxC= 1.00D-01 BMatC= 6.29D-11 BMatP= 8.19D-11
 IDIUse=1 WtCom= 1.00D+00 WtEn= 0.00D+00
 Coeff-Com:  0.992D-02-0.138D+00-0.840D-01 0.328D+00 0.209D+00-0.224D+00
 Coeff-Com: -0.640D+00-0.198D+00 0.922D+00 0.815D+00
 Coeff:      0.992D-02-0.138D+00-0.840D-01 0.328D+00 0.209D+00-0.224D+00
 Coeff:     -0.640D+00-0.198D+00 0.922D+00 0.815D+00
 Gap=     0.126 Goal=   None    Shift=    0.000
 RMSDP=1.06D-06 MaxDP=1.27D-05 DE=-2.62D-09 OVMax= 1.06D-04

 Cycle  31  Pass 1  IDiag  1:
 RMSU=  3.16D-07    CP:  1.00D+00  2.61D+00  3.00D+00  3.00D+00  3.00D+00
                    CP:  3.00D+00  3.00D+00  2.21D+00  3.00D+00  1.76D+00
 E= -657.682409503694     Delta-E=       -0.000000001654 Rises=F Damp=F
 DIIS: error= 8.26D-07 at cycle  11 NSaved=  11.
 NSaved=11 IEnMin=11 EnMin= -657.682409503694     IErMin=11 ErrMin= 8.26D-07
 ErrMax= 8.26D-07  0.00D+00 EMaxC= 1.00D-01 BMatC= 2.31D-11 BMatP= 6.29D-11
 IDIUse=1 WtCom= 1.00D+00 WtEn= 0.00D+00
 Coeff-Com:  0.685D-02-0.690D-01-0.468D-01 0.125D+00 0.105D+00-0.403D-01
 Coeff-Com: -0.223D+00-0.272D+00 0.226D+00 0.475D+00 0.712D+00
 Coeff:      0.685D-02-0.690D-01-0.468D-01 0.125D+00 0.105D+00-0.403D-01
 Coeff:     -0.223D+00-0.272D+00 0.226D+00 0.475D+00 0.712D+00
 Gap=     0.126 Goal=   None    Shift=    0.000
 RMSDP=4.36D-07 MaxDP=5.23D-06 DE=-1.65D-09 OVMax= 4.45D-05

 Cycle  32  Pass 1  IDiag  1:
 RMSU=  8.02D-08    CP:  1.00D+00  2.63D+00  3.00D+00  3.00D+00  3.00D+00
                    CP:  3.00D+00  3.00D+00  2.35D+00  3.00D+00  2.21D+00
                    CP:  1.77D+00
 E= -657.682409504174     Delta-E=       -0.000000000480 Rises=F Damp=F
 DIIS: error= 4.58D-07 at cycle  12 NSaved=  12.
 NSaved=12 IEnMin=12 EnMin= -657.682409504174     IErMin=12 ErrMin= 4.58D-07
 ErrMax= 4.58D-07  0.00D+00 EMaxC= 1.00D-01 BMatC= 1.33D-11 BMatP= 2.31D-11
 IDIUse=1 WtCom= 1.00D+00 WtEn= 0.00D+00
 Coeff-Com: -0.741D-03 0.347D-01 0.185D-01-0.120D+00-0.679D-01 0.132D+00
 Coeff-Com:  0.301D+00-0.878D-01-0.491D+00-0.234D+00 0.477D+00 0.104D+01
 Coeff:     -0.741D-03 0.347D-01 0.185D-01-0.120D+00-0.679D-01 0.132D+00
 Coeff:      0.301D+00-0.878D-01-0.491D+00-0.234D+00 0.477D+00 0.104D+01
 Gap=     0.126 Goal=   None    Shift=    0.000
 RMSDP=4.51D-07 MaxDP=5.19D-06 DE=-4.80D-10 OVMax= 4.58D-05

 Cycle  33  Pass 1  IDiag  1:
 RMSU=  8.88D-08    CP:  1.00D+00  2.64D+00  3.00D+00  3.00D+00  3.00D+00
                    CP:  3.00D+00  3.00D+00  2.48D+00  3.00D+00  2.78D+00
                    CP:  2.70D+00  1.80D+00
 E= -657.682409504573     Delta-E=       -0.000000000399 Rises=F Damp=F
 DIIS: error= 3.04D-07 at cycle  13 NSaved=  13.
 NSaved=13 IEnMin=13 EnMin= -657.682409504573     IErMin=13 ErrMin= 3.04D-07
 ErrMax= 3.04D-07  0.00D+00 EMaxC= 1.00D-01 BMatC= 6.34D-12 BMatP= 1.33D-11
 IDIUse=1 WtCom= 1.00D+00 WtEn= 0.00D+00
 Coeff-Com: -0.294D-02 0.361D-01 0.257D-01-0.737D-01-0.735D-01 0.445D-01
 Coeff-Com:  0.163D+00 0.745D-01-0.180D+00-0.224D+00-0.251D+00 0.327D+00
 Coeff-Com:  0.113D+01
 Coeff:     -0.294D-02 0.361D-01 0.257D-01-0.737D-01-0.735D-01 0.445D-01
 Coeff:      0.163D+00 0.745D-01-0.180D+00-0.224D+00-0.251D+00 0.327D+00
 Coeff:      0.113D+01
 Gap=     0.126 Goal=   None    Shift=    0.000
 RMSDP=3.37D-07 MaxDP=4.03D-06 DE=-3.99D-10 OVMax= 3.46D-05

 Cycle  34  Pass 1  IDiag  1:
 RMSU=  1.18D-07    CP:  1.00D+00  2.66D+00  3.00D+00  3.00D+00  3.00D+00
                    CP:  3.00D+00  3.00D+00  2.58D+00  3.00D+00  3.00D+00
                    CP:  3.00D+00  2.74D+00  1.88D+00
 E= -657.682409504779     Delta-E=       -0.000000000207 Rises=F Damp=F
 DIIS: error= 2.39D-07 at cycle  14 NSaved=  14.
 NSaved=14 IEnMin=14 EnMin= -657.682409504779     IErMin=14 ErrMin= 2.39D-07
 ErrMax= 2.39D-07  0.00D+00 EMaxC= 1.00D-01 BMatC= 4.02D-12 BMatP= 6.34D-12
 IDIUse=1 WtCom= 1.00D+00 WtEn= 0.00D+00
 Coeff-Com: -0.115D-02-0.199D-02 0.319D-02 0.342D-01-0.290D-02-0.523D-01
 Coeff-Com: -0.731D-01 0.829D-01 0.214D+00 0.171D-02-0.479D+00-0.461D+00
 Coeff-Com:  0.616D+00 0.112D+01
 Coeff:     -0.115D-02-0.199D-02 0.319D-02 0.342D-01-0.290D-02-0.523D-01
 Coeff:     -0.731D-01 0.829D-01 0.214D+00 0.171D-02-0.479D+00-0.461D+00
 Coeff:      0.616D+00 0.112D+01
 Gap=     0.126 Goal=   None    Shift=    0.000
 RMSDP=2.70D-07 MaxDP=4.03D-06 DE=-2.07D-10 OVMax= 2.71D-05

 Cycle  35  Pass 1  IDiag  1:
 RMSU=  8.14D-08    CP:  1.00D+00  2.66D+00  3.00D+00  3.00D+00  3.00D+00
                    CP:  3.00D+00  3.00D+00  2.64D+00  3.00D+00  3.00D+00
                    CP:  3.00D+00  3.00D+00  3.00D+00  2.57D+00
 E= -657.682409504914     Delta-E=       -0.000000000135 Rises=F Damp=F
 DIIS: error= 1.62D-07 at cycle  15 NSaved=  15.
 NSaved=15 IEnMin=15 EnMin= -657.682409504914     IErMin=15 ErrMin= 1.62D-07
 ErrMax= 1.62D-07  0.00D+00 EMaxC= 1.00D-01 BMatC= 2.16D-12 BMatP= 4.02D-12
 IDIUse=1 WtCom= 1.00D+00 WtEn= 0.00D+00
 Coeff-Com:  0.173D-02-0.324D-01-0.191D-01 0.913D-01 0.588D-01-0.834D-01
 Coeff-Com: -0.195D+00-0.152D-01 0.335D+00 0.188D+00-0.159D+00-0.588D+00
 Coeff-Com: -0.414D+00 0.786D+00 0.105D+01
 Coeff:      0.173D-02-0.324D-01-0.191D-01 0.913D-01 0.588D-01-0.834D-01
 Coeff:     -0.195D+00-0.152D-01 0.335D+00 0.188D+00-0.159D+00-0.588D+00
 Coeff:     -0.414D+00 0.786D+00 0.105D+01
 Gap=     0.126 Goal=   None    Shift=    0.000
 RMSDP=2.56D-07 MaxDP=3.93D-06 DE=-1.35D-10 OVMax= 2.61D-05

 Cycle  36  Pass 1  IDiag  1:
 RMSU=  1.57D-07    CP:  1.00D+00  2.66D+00  3.00D+00  3.00D+00  3.00D+00
                    CP:  3.00D+00  3.00D+00  2.69D+00  3.00D+00  3.00D+00
                    CP:  3.00D+00  3.00D+00  3.00D+00  3.00D+00  2.25D+00
 E= -657.682409504983     Delta-E=       -0.000000000069 Rises=F Damp=F
 DIIS: error= 8.91D-08 at cycle  16 NSaved=  16.
 NSaved=16 IEnMin=16 EnMin= -657.682409504983     IErMin=16 ErrMin= 8.91D-08
 ErrMax= 8.91D-08  0.00D+00 EMaxC= 1.00D-01 BMatC= 6.31D-13 BMatP= 2.16D-12
 IDIUse=1 WtCom= 1.00D+00 WtEn= 0.00D+00
 Coeff-Com:  0.114D-02-0.118D-01-0.890D-02 0.207D-01 0.243D-01-0.936D-02
 Coeff-Com: -0.430D-01-0.425D-01 0.430D-01 0.702D-01 0.140D+00-0.419D-01
 Coeff-Com: -0.428D+00-0.126D+00 0.402D+00 0.101D+01
 Coeff:      0.114D-02-0.118D-01-0.890D-02 0.207D-01 0.243D-01-0.936D-02
 Coeff:     -0.430D-01-0.425D-01 0.430D-01 0.702D-01 0.140D+00-0.419D-01
 Coeff:     -0.428D+00-0.126D+00 0.402D+00 0.101D+01
 Gap=     0.126 Goal=   None    Shift=    0.000
 RMSDP=1.13D-07 MaxDP=1.95D-06 DE=-6.91D-11 OVMax= 1.15D-05

 Cycle  37  Pass 1  IDiag  1:
 RMSU=  2.03D-08    CP:  1.00D+00  2.67D+00  3.00D+00  3.00D+00  3.00D+00
                    CP:  3.00D+00  3.00D+00  2.71D+00  3.00D+00  3.00D+00
                    CP:  3.00D+00  3.00D+00  3.00D+00  3.00D+00  2.85D+00
                    CP:  1.58D+00
 E= -657.682409504997     Delta-E=       -0.000000000014 Rises=F Damp=F
 DIIS: error= 5.45D-08 at cycle  17 NSaved=  17.
 NSaved=17 IEnMin=17 EnMin= -657.682409504997     IErMin=17 ErrMin= 5.45D-08
 ErrMax= 5.45D-08  0.00D+00 EMaxC= 1.00D-01 BMatC= 3.61D-13 BMatP= 6.31D-13
 IDIUse=1 WtCom= 1.00D+00 WtEn= 0.00D+00
 Coeff-Com:  0.510D-04 0.455D-02 0.130D-02-0.202D-01-0.605D-02 0.240D-01
 Coeff-Com:  0.435D-01-0.183D-01-0.900D-01-0.231D-01 0.140D+00 0.171D+00
 Coeff-Com: -0.119D+00-0.329D+00-0.128D+00 0.652D+00 0.698D+00
 Coeff:      0.510D-04 0.455D-02 0.130D-02-0.202D-01-0.605D-02 0.240D-01
 Coeff:      0.435D-01-0.183D-01-0.900D-01-0.231D-01 0.140D+00 0.171D+00
 Coeff:     -0.119D+00-0.329D+00-0.128D+00 0.652D+00 0.698D+00
 Gap=     0.126 Goal=   None    Shift=    0.000
 RMSDP=3.80D-08 MaxDP=6.80D-07 DE=-1.41D-11 OVMax= 3.82D-06

 Cycle  38  Pass 1  IDiag  1:
 RMSU=  1.33D-08    CP:  1.00D+00  2.67D+00  3.00D+00  3.00D+00  3.00D+00
                    CP:  3.00D+00  3.00D+00  2.71D+00  3.00D+00  3.00D+00
                    CP:  3.00D+00  3.00D+00  3.00D+00  3.00D+00  3.00D+00
                    CP:  1.77D+00  1.54D+00
 E= -657.682409505005     Delta-E=       -0.000000000008 Rises=F Damp=F
 DIIS: error= 4.09D-08 at cycle  18 NSaved=  18.
 NSaved=18 IEnMin=18 EnMin= -657.682409505005     IErMin=18 ErrMin= 4.09D-08
 ErrMax= 4.09D-08  0.00D+00 EMaxC= 1.00D-01 BMatC= 9.98D-14 BMatP= 3.61D-13
 IDIUse=1 WtCom= 1.00D+00 WtEn= 0.00D+00
 Coeff-Com: -0.378D-03 0.609D-02 0.338D-02-0.152D-01-0.111D-01 0.131D-01
 Coeff-Com:  0.321D-01 0.790D-02-0.530D-01-0.345D-01 0.222D-02 0.783D-01
 Coeff-Com:  0.125D+00-0.618D-01-0.247D+00-0.136D+00 0.243D+00 0.105D+01
 Coeff:     -0.378D-03 0.609D-02 0.338D-02-0.152D-01-0.111D-01 0.131D-01
 Coeff:      0.321D-01 0.790D-02-0.530D-01-0.345D-01 0.222D-02 0.783D-01
 Coeff:      0.125D+00-0.618D-01-0.247D+00-0.136D+00 0.243D+00 0.105D+01
 Gap=     0.126 Goal=   None    Shift=    0.000
 RMSDP=2.87D-08 MaxDP=5.22D-07 DE=-7.73D-12 OVMax= 2.85D-06

 Cycle  39  Pass 1  IDiag  1:
 RMSU=  9.90D-09    CP:  1.00D+00  2.67D+00  3.00D+00  3.00D+00  3.00D+00
                    CP:  3.00D+00  3.00D+00  2.72D+00  3.00D+00  3.00D+00
                    CP:  3.00D+00  3.00D+00  3.00D+00  3.00D+00  3.00D+00
                    CP:  1.90D+00  2.16D+00  1.78D+00
 E= -657.682409505005     Delta-E=        0.000000000000 Rises=F Damp=F
 DIIS: error= 2.52D-08 at cycle  19 NSaved=  19.
 NSaved=19 IEnMin=18 EnMin= -657.682409505005     IErMin=19 ErrMin= 2.52D-08
 ErrMax= 2.52D-08  0.00D+00 EMaxC= 1.00D-01 BMatC= 3.83D-14 BMatP= 9.98D-14
 IDIUse=1 WtCom= 1.00D+00 WtEn= 0.00D+00
 Coeff-Com:  0.510D-04-0.302D-02-0.146D-02 0.125D-01 0.435D-02-0.129D-01
 Coeff-Com: -0.260D-01 0.888D-02 0.514D-01 0.152D-01-0.731D-01-0.980D-01
 Coeff-Com:  0.509D-01 0.201D+00 0.542D-01-0.312D+00-0.395D+00 0.269D-01
 Coeff-Com:  0.149D+01
 Coeff:      0.510D-04-0.302D-02-0.146D-02 0.125D-01 0.435D-02-0.129D-01
 Coeff:     -0.260D-01 0.888D-02 0.514D-01 0.152D-01-0.731D-01-0.980D-01
 Coeff:      0.509D-01 0.201D+00 0.542D-01-0.312D+00-0.395D+00 0.269D-01
 Coeff:      0.149D+01
 Gap=     0.126 Goal=   None    Shift=    0.000
 RMSDP=2.13D-08 MaxDP=3.71D-07 DE= 0.00D+00 OVMax= 2.01D-06

 Cycle  40  Pass 1  IDiag  1:
 RMSU=  7.35D-09    CP:  1.00D+00  2.67D+00  3.00D+00  3.00D+00  3.00D+00
                    CP:  3.00D+00  3.00D+00  2.71D+00  3.00D+00  3.00D+00
                    CP:  3.00D+00  3.00D+00  3.00D+00  3.00D+00  3.00D+00
                    CP:  1.95D+00  2.74D+00  2.71D+00  1.54D+00
 E= -657.682409505005     Delta-E=        0.000000000000 Rises=F Damp=F
 DIIS: error= 1.38D-08 at cycle  20 NSaved=  20.
 NSaved=20 IEnMin=18 EnMin= -657.682409505005     IErMin=20 ErrMin= 1.38D-08
 ErrMax= 1.38D-08  0.00D+00 EMaxC= 1.00D-01 BMatC= 1.09D-14 BMatP= 3.83D-14
 IDIUse=1 WtCom= 1.00D+00 WtEn= 0.00D+00
 Large coefficients: NSaved= 20 BigCof=    0.00 CofMax=   10.00 Det=-6.52D-15
 Inversion failed.  Reducing to 19 matrices.
 Large coefficients: NSaved= 19 BigCof=    0.00 CofMax=   10.00 Det=-6.57D-15
 Inversion failed.  Reducing to 18 matrices.
 Large coefficients: NSaved= 18 BigCof=    0.00 CofMax=   10.00 Det=-7.74D-15
 Inversion failed.  Reducing to 17 matrices.
 Large coefficients: NSaved= 17 BigCof=    0.00 CofMax=   10.00 Det=-7.84D-15
 Inversion failed.  Reducing to 16 matrices.
 Large coefficients: NSaved= 16 BigCof=    0.00 CofMax=   10.00 Det=-9.61D-15
 Inversion failed.  Reducing to 15 matrices.
 Coeff-Com: -0.378D-03-0.105D-02 0.574D-03 0.429D-02 0.193D-02-0.534D-02
 Coeff-Com: -0.446D-02-0.133D-01 0.190D-01 0.210D-01 0.733D-02-0.116D+00
 Coeff-Com: -0.170D+00 0.194D+00 0.106D+01
 Coeff:     -0.378D-03-0.105D-02 0.574D-03 0.429D-02 0.193D-02-0.534D-02
 Coeff:     -0.446D-02-0.133D-01 0.190D-01 0.210D-01 0.733D-02-0.116D+00
 Coeff:     -0.170D+00 0.194D+00 0.106D+01
 Gap=     0.126 Goal=   None    Shift=    0.000
 RMSDP=9.37D-09 MaxDP=1.56D-07 DE= 0.00D+00 OVMax= 7.58D-07

 SCF Done:  E(RwB97XD) =  -657.682409505     A.U. after   40 cycles
            NFock= 40  Conv=0.94D-08     -V/T= 2.0051
 KE= 6.543309832184D+02 PE=-2.881458008619D+03 EE= 8.896987650220D+02
 Leave Link  502 at Wed Jan  5 16:36:59 2022, MaxMem=   402653184 cpu:            1989.5 elap:             369.3
 (Enter /work/01114/jfonner/frontera/gaussian/16rC.01/g16/l601.exe)
 Copying SCF densities to generalized density rwf, IOpCl= 0 IROHF=0.

 **********************************************************************

            Population analysis using the SCF Density.

 **********************************************************************

 Orbital symmetries:
       Occupied  (A) (A) (A) (A) (A) (A) (A) (A) (A) (A) (A) (A)
                 (A) (A) (A) (A) (A) (A) (A) (A) (A) (A) (A) (A)
                 (A) (A) (A) (A) (A) (A) (A) (A) (A) (A) (A) (A)
                 (A) (A) (A) (A) (A) (A) (A) (A) (A)
       Virtual   (A) (A) (A) (A) (A) (A) (A) (A) (A) (A) (A) (A)
                 (A) (A) (A) (A) (A) (A) (A) (A) (A) (A) (A) (A)
                 (A) (A) (A) (A) (A) (A) (A) (A) (A) (A) (A) (A)
                 (A) (A) (A) (A) (A) (A) (A) (A) (A) (A) (A) (A)
                 (A) (A) (A) (A) (A) (A) (A) (A) (A) (A) (A) (A)
                 (A) (A) (A) (A) (A) (A) (A) (A) (A) (A) (A) (A)
                 (A) (A) (A) (A) (A) (A) (A) (A)
 The electronic state is 1-A.
 Alpha  occ. eigenvalues --  -19.50231 -19.49010 -19.38849 -14.77451 -14.71620
 Alpha  occ. eigenvalues --  -14.65166 -10.69804 -10.66155 -10.65472 -10.62716
 Alpha  occ. eigenvalues --  -10.59701 -10.59035 -10.53639  -1.41966  -1.40565
 Alpha  occ. eigenvalues --   -1.33295  -1.28397  -1.24067  -1.18920  -1.09860
 Alpha  occ. eigenvalues --   -1.05769  -1.01469  -0.93987  -0.90490  -0.84091
 Alpha  occ. eigenvalues --   -0.80414  -0.78343  -0.76796  -0.76276  -0.75973
 Alpha  occ. eigenvalues --   -0.74983  -0.72588  -0.70428  -0.67550  -0.66471
 Alpha  occ. eigenvalues --   -0.65113  -0.63671  -0.62209  -0.61236  -0.57426
 Alpha  occ. eigenvalues --   -0.56694  -0.54223  -0.51410  -0.48227  -0.46549
 Alpha virt. eigenvalues --   -0.33972  -0.28799  -0.27276  -0.26917  -0.18446
 Alpha virt. eigenvalues --   -0.12225  -0.11567  -0.02232   0.03260   0.04027
 Alpha virt. eigenvalues --    0.06022   0.06671   0.07399   0.09503   0.12089
 Alpha virt. eigenvalues --    0.14108   0.15302   0.16422   0.18952   0.20602
 Alpha virt. eigenvalues --    0.23416   0.28134   0.29699   0.31261   0.37486
 Alpha virt. eigenvalues --    0.40316   0.42161   0.42534   0.43201   0.44141
 Alpha virt. eigenvalues --    0.44348   0.45390   0.46570   0.49091   0.49340
 Alpha virt. eigenvalues --    0.49923   0.51049   0.53362   0.53775   0.57101
 Alpha virt. eigenvalues --    0.58590   0.60039   0.61779   0.62755   0.63201
 Alpha virt. eigenvalues --    0.65925   0.67409   0.70612   0.71390   0.71957
 Alpha virt. eigenvalues --    0.76081   0.78164   0.80162   0.82651   0.83521
 Alpha virt. eigenvalues --    0.83585   0.84654   0.86145   0.87563   0.88845
 Alpha virt. eigenvalues --    0.90585   0.92356   0.94217   0.94961   0.96626
 Alpha virt. eigenvalues --    0.98418   1.02483   1.03240   1.07522   1.09217
 Alpha virt. eigenvalues --    1.14494   1.16778   1.22766   1.33540   1.41700
 Alpha virt. eigenvalues --    1.43578   1.55995   1.71653   1.78685   1.85637
          Condensed to atoms (all electrons):
               1          2          3          4          5          6
     1  C    4.789735   0.501759   0.067460  -0.033492   0.001106  -0.000026
     2  O    0.501759   8.044076  -0.127084   0.000043  -0.001250  -0.000005
     3  N    0.067460  -0.127084   7.464344   0.201369  -0.068495   0.003251
     4  C   -0.033492   0.000043   0.201369   5.540250   0.168311  -0.138855
     5  C    0.001106  -0.001250  -0.068495   0.168311   5.128586   0.500280
     6  O   -0.000026  -0.000005   0.003251  -0.138855   0.500280   8.037113
     7  N    0.000162   0.000047   0.002394  -0.152840  -0.001880  -0.153522
     8  C   -0.000002   0.000000  -0.000206   0.006231  -0.020078  -0.007158
     9  C   -0.000944  -0.000523  -0.138562   0.367121  -0.050243   0.004064
    10  C    0.000004   0.000000   0.000043  -0.001007  -0.013417   0.001145
    11  O   -0.000000  -0.000000  -0.000000   0.000016   0.000610   0.001404
    12  N   -0.000000  -0.000000  -0.000001  -0.000000   0.000536   0.000384
    13  C    0.000000   0.000000   0.000000  -0.000002  -0.000028  -0.000003
    14  H    0.401557  -0.063936  -0.117243   0.007217  -0.000109  -0.000001
    15  H   -0.000058   0.000015   0.007598  -0.043262   0.005154  -0.000669
    16  H   -0.000000  -0.000000   0.000000  -0.000000   0.000001   0.000000
    17  H   -0.000000   0.000000  -0.000000   0.000000  -0.000001  -0.000000
               7          8          9         10         11         12
     1  C    0.000162  -0.000002  -0.000944   0.000004  -0.000000  -0.000000
     2  O    0.000047   0.000000  -0.000523   0.000000  -0.000000  -0.000000
     3  N    0.002394  -0.000206  -0.138562   0.000043  -0.000000  -0.000001
     4  C   -0.152840   0.006231   0.367121  -0.001007   0.000016  -0.000000
     5  C   -0.001880  -0.020078  -0.050243  -0.013417   0.000610   0.000536
     6  O   -0.153522  -0.007158   0.004064   0.001145   0.001404   0.000384
     7  N    7.257716   0.354510   0.002395  -0.039825  -0.000454  -0.006379
     8  C    0.354510   5.293632  -0.000262   0.125917  -0.066557  -0.175552
     9  C    0.002395  -0.000262   5.388644   0.000001  -0.000000  -0.000001
    10  C   -0.039825   0.125917   0.000001   4.941635   0.473371   0.202446
    11  O   -0.000454  -0.066557  -0.000000   0.473371   8.019459  -0.151981
    12  N   -0.006379  -0.175552  -0.000001   0.202446  -0.151981   7.250401
    13  C    0.000012   0.004881   0.000000  -0.048676  -0.008795   0.321603
    14  H   -0.000001   0.000000  -0.000199   0.000000  -0.000000  -0.000000
    15  H    0.000726  -0.000041   0.268277   0.000001  -0.000000  -0.000000
    16  H   -0.000009  -0.000178  -0.000000   0.002609   0.000554  -0.047874
    17  H    0.000021  -0.000013   0.000000   0.000356   0.000271  -0.036008
              13         14         15         16         17
     1  C    0.000000   0.401557  -0.000058  -0.000000  -0.000000
     2  O    0.000000  -0.063936   0.000015  -0.000000   0.000000
     3  N    0.000000  -0.117243   0.007598   0.000000  -0.000000
     4  C   -0.000002   0.007217  -0.043262  -0.000000   0.000000
     5  C   -0.000028  -0.000109   0.005154   0.000001  -0.000001
     6  O   -0.000003  -0.000001  -0.000669   0.000000  -0.000000
     7  N    0.000012  -0.000001   0.000726  -0.000009   0.000021
     8  C    0.004881   0.000000  -0.000041  -0.000178  -0.000013
     9  C    0.000000  -0.000199   0.268277  -0.000000   0.000000
    10  C   -0.048676   0.000000   0.000001   0.002609   0.000356
    11  O   -0.008795  -0.000000  -0.000000   0.000554   0.000271
    12  N    0.321603  -0.000000  -0.000000  -0.047874  -0.036008
    13  C    4.958258   0.000000   0.000000   0.362396   0.359071
    14  H    0.000000   0.555075   0.000003  -0.000000   0.000000
    15  H    0.000000   0.000003   0.537450  -0.000000   0.000000
    16  H    0.362396  -0.000000  -0.000000   0.426112  -0.036921
    17  H    0.359071   0.000000   0.000000  -0.036921   0.419364
 Mulliken charges:
               1
     1  C    0.272740
     2  O   -0.353142
     3  N   -0.294867
     4  C    0.078900
     5  C    0.350917
     6  O   -0.247402
     7  N   -0.263072
     8  C    0.484875
     9  C    0.160233
    10  C    0.355397
    11  O   -0.267898
    12  N   -0.357574
    13  C    0.051281
    14  H    0.217637
    15  H    0.224806
    16  H    0.293309
    17  H    0.293860
 Sum of Mulliken charges =   1.00000
 Mulliken charges with hydrogens summed into heavy atoms:
               1
     1  C    0.490377
     2  O   -0.353142
     3  N   -0.294867
     4  C    0.078900
     5  C    0.350917
     6  O   -0.247402
     7  N   -0.263072
     8  C    0.484875
     9  C    0.385038
    10  C    0.355397
    11  O   -0.267898
    12  N   -0.357574
    13  C    0.638450
 Electronic spatial extent (au):  <R**2>=           2837.6839
 Charge=              1.0000 electrons
 Dipole moment (field-independent basis, Debye):
    X=              6.0868    Y=              1.2273    Z=              1.8417  Tot=              6.4767
 Quadrupole moment (field-independent basis, Debye-Ang):
   XX=            -26.4923   YY=            -51.3869   ZZ=            -73.3157
   XY=             28.7718   XZ=              5.5100   YZ=            -14.1938
 Traceless Quadrupole moment (field-independent basis, Debye-Ang):
   XX=             23.9060   YY=             -0.9886   ZZ=            -22.9174
   XY=             28.7718   XZ=              5.5100   YZ=            -14.1938
 Octapole moment (field-independent basis, Debye-Ang**2):
  XXX=            114.9998  YYY=             23.7998  ZZZ=             -5.2460  XYY=             34.0451
  XXY=             55.3525  XXZ=             -8.6154  XZZ=              2.5053  YZZ=              4.7936
  YYZ=             -3.8052  XYZ=             14.1746
 Hexadecapole moment (field-independent basis, Debye-Ang**3):
 XXXX=          -2061.4088 YYYY=           -600.2668 ZZZZ=           -256.3565 XXXY=            380.0618
 XXXZ=             45.5855 YYYX=            139.3190 YYYZ=            -42.6081 ZZZX=             -7.5458
 ZZZY=             -1.5466 XXYY=           -352.8256 XXZZ=           -487.1000 YYZZ=           -160.2053
 XXYZ=           -113.8062 YYXZ=              2.0126 ZZXY=              0.1407
 N-N= 6.797458508733D+02 E-N=-2.881458008134D+03  KE= 6.543309832184D+02
 No NMR shielding tensors so no spin-rotation constants.
 Leave Link  601 at Wed Jan  5 16:37:06 2022, MaxMem=   402653184 cpu:              41.8 elap:               7.5
 (Enter /work/01114/jfonner/frontera/gaussian/16rC.01/g16/l9999.exe)
 Unable to Open any file for archive entry.
 1\1\GINC-C202-005\SP\RwB97XD\6-31G\C7H4N3O3(1+)\SA748948\05-Jan-2022\0
 \\#p int=acc2e=12 wb97xd/6-31g\\Atom number=17\\1,1\C,0,0.84,-0.854,6.
 792\O,0,1.027,-2.022,6.72\N,0,1.81,0.002,7.023\C,0,3.191,-0.429,7.101\
 C,0,3.911,0.258,8.229\O,0,4.064,1.478,8.228\N,0,4.364,-0.527,9.189\C,0
 ,5.067,0.02,10.326\C,0,3.871,-0.103,5.748\C,0,4.271,0.817,11.296\O,0,4
 .359,2.033,11.367\N,0,3.492,0.104,12.073\C,0,2.585,0.677,13.085\H,0,-0
 .1554133,-0.47120296,6.70528907\H,0,4.86074827,-0.49141865,5.62787794\
 H,0,2.88854701,0.22276101,14.00501421\H,0,1.55916343,0.43285371,12.903
 47336\\Version=ES64L-G16RevC.01\State=1-A\HF=-657.6824095\RMSD=9.375e-
 09\Dipole=0.6097875,-0.1648894,2.4685824\Quadrupole=-3.9403209,-25.459
 9321,29.400253,-6.1461847,-9.0579062,2.2847591\PG=C01 [X(C7H4N3O3)]\\@
 The archive entry for this job was punched.


 One man practicing sportsmanship is far better than 50 preaching it.
 -- Knute K. Rockne
 Job cpu time:       0 days  0 hours 36 minutes 31.9 seconds.
 Elapsed time:       0 days  0 hours  6 minutes 45.5 seconds.
 File lengths (MBytes):  RWF=     15 Int=      0 D2E=      0 Chk=      2 Scr=      1
 Normal termination of Gaussian 16 at Wed Jan  5 16:37:07 2022.
