 Entering Gaussian System, Link 0=g16
 Input=4znn_01_gebf_dft_6.gjf
 Output=4znn_01_gebf_dft_6.log
 Initial command:
 /work/01114/jfonner/frontera/gaussian/16rC.01/g16/l1.exe "/scratch1/08249/sa748948/lsqc/62950343/Gau-176210.inp" -scrdir="/scratch1/08249/sa748948/lsqc/62950343/"
 Entering Link 1 = /work/01114/jfonner/frontera/gaussian/16rC.01/g16/l1.exe PID=    176220.
  
 Copyright (c) 1988-2019, Gaussian, Inc.  All Rights Reserved.
  
 This is part of the Gaussian(R) 16 program.  It is based on
 the Gaussian(R) 09 system (copyright 2009, Gaussian, Inc.),
 the Gaussian(R) 03 system (copyright 2003, Gaussian, Inc.),
 the Gaussian(R) 98 system (copyright 1998, Gaussian, Inc.),
 the Gaussian(R) 94 system (copyright 1995, Gaussian, Inc.),
 the Gaussian 92(TM) system (copyright 1992, Gaussian, Inc.),
 the Gaussian 90(TM) system (copyright 1990, Gaussian, Inc.),
 the Gaussian 88(TM) system (copyright 1988, Gaussian, Inc.),
 the Gaussian 86(TM) system (copyright 1986, Carnegie Mellon
 University), and the Gaussian 82(TM) system (copyright 1983,
 Carnegie Mellon University). Gaussian is a federally registered
 trademark of Gaussian, Inc.
  
 This software contains proprietary and confidential information,
 including trade secrets, belonging to Gaussian, Inc.
  
 This software is provided under written license and may be
 used, copied, transmitted, or stored only in accord with that
 written license.
  
 The following legend is applicable only to US Government
 contracts under FAR:
  
                    RESTRICTED RIGHTS LEGEND
  
 Use, reproduction and disclosure by the US Government is
 subject to restrictions as set forth in subparagraphs (a)
 and (c) of the Commercial Computer Software - Restricted
 Rights clause in FAR 52.227-19.
  
 Gaussian, Inc.
 340 Quinnipiac St., Bldg. 40, Wallingford CT 06492
  
  
 ---------------------------------------------------------------
 Warning -- This program may not be used in any manner that
 competes with the business of Gaussian, Inc. or will provide
 assistance to any competitor of Gaussian, Inc.  The licensee
 of this program is prohibited from giving any competitor of
 Gaussian, Inc. access to this program.  By using this program,
 the user acknowledges that Gaussian, Inc. is engaged in the
 business of creating and licensing software in the field of
 computational chemistry and represents and warrants to the
 licensee that it is not a competitor of Gaussian, Inc. and that
 it will not use this program in any manner prohibited above.
 ---------------------------------------------------------------
  

 Cite this work as:
 Gaussian 16, Revision C.01,
 M. J. Frisch, G. W. Trucks, H. B. Schlegel, G. E. Scuseria, 
 M. A. Robb, J. R. Cheeseman, G. Scalmani, V. Barone, 
 G. A. Petersson, H. Nakatsuji, X. Li, M. Caricato, A. V. Marenich, 
 J. Bloino, B. G. Janesko, R. Gomperts, B. Mennucci, H. P. Hratchian, 
 J. V. Ortiz, A. F. Izmaylov, J. L. Sonnenberg, D. Williams-Young, 
 F. Ding, F. Lipparini, F. Egidi, J. Goings, B. Peng, A. Petrone, 
 T. Henderson, D. Ranasinghe, V. G. Zakrzewski, J. Gao, N. Rega, 
 G. Zheng, W. Liang, M. Hada, M. Ehara, K. Toyota, R. Fukuda, 
 J. Hasegawa, M. Ishida, T. Nakajima, Y. Honda, O. Kitao, H. Nakai, 
 T. Vreven, K. Throssell, J. A. Montgomery, Jr., J. E. Peralta, 
 F. Ogliaro, M. J. Bearpark, J. J. Heyd, E. N. Brothers, K. N. Kudin, 
 V. N. Staroverov, T. A. Keith, R. Kobayashi, J. Normand, 
 K. Raghavachari, A. P. Rendell, J. C. Burant, S. S. Iyengar, 
 J. Tomasi, M. Cossi, J. M. Millam, M. Klene, C. Adamo, R. Cammi, 
 J. W. Ochterski, R. L. Martin, K. Morokuma, O. Farkas, 
 J. B. Foresman, and D. J. Fox, Gaussian, Inc., Wallingford CT, 2019.
 
 ******************************************
 Gaussian 16:  ES64L-G16RevC.01  3-Jul-2019
                 5-Jan-2022 
 ******************************************
 %chk=4znn_01_gebf_dft_6.chk
 %nproc=56
 Will use up to   56 processors via shared memory.
 %mem=3gb
 ----------------------------
 #p int=acc2e=12 wb97xd/6-31g
 ----------------------------
 1/38=1,172=1/1;
 2/12=2,17=6,18=5,40=1/2;
 3/5=1,6=6,11=2,25=1,27=12,30=1,74=-58/1,2,3;
 4//1;
 5/5=2,38=5,87=12/2;
 6/7=2,8=2,9=2,10=2,28=1,87=12/1;
 99/5=1,9=1/99;
 Leave Link    1 at Wed Jan  5 16:30:22 2022, MaxMem=   402653184 cpu:               2.7 elap:               0.5
 (Enter /work/01114/jfonner/frontera/gaussian/16rC.01/g16/l101.exe)
 --------------
 Atom number=21
 --------------
 Symbolic Z-matrix:
 Charge =  3 Multiplicity = 1
 c                     4.271     0.817     11.296 
 o                     4.359     2.033     11.367 
 n                     3.492     0.104     12.073 
 c                     2.585     0.677     13.085 
 c                     3.006     0.047     14.361 
 o                     2.958    -1.169     14.515 
 n                     3.481     0.887     15.262 
 c                     4.163     0.392     16.442 
 c                     1.127     0.33      12.827 
 c                     0.248     0.675     14.038 
 c                     3.424     0.965     17.631 
 o                     3.136     2.11      17.612 
 n                     3.173     0.129     18.647 
 c                     2.559     0.516     19.903 
 c                     5.688     0.75      16.389 
 o                     6.264     0.13      15.236 
 c                     6.42      0.21      17.569 
 h                     4.84396   0.24332   10.59779 
 h                     0.80275   0.84321   11.94588 
 h                     3.12112   0.06261   20.69253 
 h                     1.55947   0.13828   19.95927 
 
 ITRead=  0  0  0  0  0  0  0  0  0  0  0  0  0  0  0  0  0  0  0  0
 ITRead=  0
 MicOpt= -1 -1 -1 -1 -1 -1 -1 -1 -1 -1 -1 -1 -1 -1 -1 -1 -1 -1 -1 -1
 MicOpt= -1
 NAtoms=     21 NQM=       21 NQMF=       0 NMMI=      0 NMMIF=      0
                NMic=       0 NMicF=      0.
                    Isotopes and Nuclear Properties:
 (Nuclear quadrupole moments (NQMom) in fm**2, nuclear magnetic moments (NMagM)
  in nuclear magnetons)

  Atom         1           2           3           4           5           6           7           8           9          10
 IAtWgt=          12          16          14          12          12          16          14          12          12          12
 AtmWgt=  12.0000000  15.9949146  14.0030740  12.0000000  12.0000000  15.9949146  14.0030740  12.0000000  12.0000000  12.0000000
 NucSpn=           0           0           2           0           0           0           2           0           0           0
 AtZEff=  -0.0000000  -0.0000000  -0.0000000  -0.0000000  -0.0000000  -0.0000000  -0.0000000  -0.0000000  -0.0000000  -0.0000000
 NQMom=    0.0000000   0.0000000   2.0440000   0.0000000   0.0000000   0.0000000   2.0440000   0.0000000   0.0000000   0.0000000
 NMagM=    0.0000000   0.0000000   0.4037610   0.0000000   0.0000000   0.0000000   0.4037610   0.0000000   0.0000000   0.0000000
 AtZNuc=   6.0000000   8.0000000   7.0000000   6.0000000   6.0000000   8.0000000   7.0000000   6.0000000   6.0000000   6.0000000

  Atom        11          12          13          14          15          16          17          18          19          20
 IAtWgt=          12          16          14          12          12          16          12           1           1           1
 AtmWgt=  12.0000000  15.9949146  14.0030740  12.0000000  12.0000000  15.9949146  12.0000000   1.0078250   1.0078250   1.0078250
 NucSpn=           0           0           2           0           0           0           0           1           1           1
 AtZEff=  -0.0000000  -0.0000000  -0.0000000  -0.0000000  -0.0000000  -0.0000000  -0.0000000  -0.0000000  -0.0000000  -0.0000000
 NQMom=    0.0000000   0.0000000   2.0440000   0.0000000   0.0000000   0.0000000   0.0000000   0.0000000   0.0000000   0.0000000
 NMagM=    0.0000000   0.0000000   0.4037610   0.0000000   0.0000000   0.0000000   0.0000000   2.7928460   2.7928460   2.7928460
 AtZNuc=   6.0000000   8.0000000   7.0000000   6.0000000   6.0000000   8.0000000   6.0000000   1.0000000   1.0000000   1.0000000

  Atom        21
 IAtWgt=           1
 AtmWgt=   1.0078250
 NucSpn=           1
 AtZEff=  -0.0000000
 NQMom=    0.0000000
 NMagM=    2.7928460
 AtZNuc=   1.0000000
 Leave Link  101 at Wed Jan  5 16:30:23 2022, MaxMem=   402653184 cpu:               7.5 elap:               1.2
 (Enter /work/01114/jfonner/frontera/gaussian/16rC.01/g16/l202.exe)
                          Input orientation:                          
 ---------------------------------------------------------------------
 Center     Atomic      Atomic             Coordinates (Angstroms)
 Number     Number       Type             X           Y           Z
 ---------------------------------------------------------------------
      1          6           0        4.271000    0.817000   11.296000
      2          8           0        4.359000    2.033000   11.367000
      3          7           0        3.492000    0.104000   12.073000
      4          6           0        2.585000    0.677000   13.085000
      5          6           0        3.006000    0.047000   14.361000
      6          8           0        2.958000   -1.169000   14.515000
      7          7           0        3.481000    0.887000   15.262000
      8          6           0        4.163000    0.392000   16.442000
      9          6           0        1.127000    0.330000   12.827000
     10          6           0        0.248000    0.675000   14.038000
     11          6           0        3.424000    0.965000   17.631000
     12          8           0        3.136000    2.110000   17.612000
     13          7           0        3.173000    0.129000   18.647000
     14          6           0        2.559000    0.516000   19.903000
     15          6           0        5.688000    0.750000   16.389000
     16          8           0        6.264000    0.130000   15.236000
     17          6           0        6.420000    0.210000   17.569000
     18          1           0        4.843965    0.243316   10.597789
     19          1           0        0.802753    0.843213   11.945878
     20          1           0        3.121121    0.062608   20.692528
     21          1           0        1.559471    0.138275   19.959272
 ---------------------------------------------------------------------
                    Distance matrix (angstroms):
                    1          2          3          4          5
     1  C    0.000000
     2  O    1.221246   0.000000
     3  N    1.311083   2.229611   0.000000
     4  C    2.462259   2.817328   1.474829   0.000000
     5  C    3.404020   3.839120   2.339741   1.484021   0.000000
     6  O    4.003764   4.703776   2.805183   2.364687   1.226652
     7  N    4.044522   4.153941   3.283737   2.363524   1.320237
     8  C    5.164650   5.337314   4.429599   3.720317   2.405875
     9  C    3.530703   3.934162   2.492552   1.520769   2.442107
    10  C    4.870653   5.087114   3.835466   2.523843   2.846977
    11  C    6.393085   6.422814   5.624705   4.631736   3.422039
    12  O    6.546139   6.364093   5.901804   4.780253   3.852515
    13  N    7.464325   7.617756   6.581783   5.619777   4.290036
    14  C    8.780774   8.854636   7.896147   6.819950   5.579743
    15  C    5.286873   5.350964   4.885447   4.533250   3.435130
    16  O    4.468514   4.713767   4.205857   4.296633   3.374474
    17  C    6.658617   6.784973   6.228197   5.918747   4.687561
    18  H    1.070000   2.007447   2.005857   3.387804   4.192661
    19  H    3.528706   3.794415   2.791889   2.121705   3.364680
    20  H    9.496635   9.611465   8.627603   7.651104   6.332594
    21  H    9.103040   9.233335   8.119675   6.971194   5.782856
                    6          7          8          9         10
     6  O    0.000000
     7  N    2.249150   0.000000
     8  C    2.757186   1.450017   0.000000
     9  C    2.906700   3.432316   4.721161   0.000000
    10  C    3.312396   3.463439   4.602883   1.535639   0.000000
    11  C    3.805334   2.370969   1.512670   5.362635   4.804240
    12  O    4.513860   2.671564   2.318438   5.486411   4.813860
    13  N    4.336410   3.482478   2.431315   6.172432   5.486039
    14  C    5.659414   4.746220   3.816636   7.221842   6.305888
    15  C    3.827184   2.481884   1.567354   5.802324   5.926755
    16  O    3.624483   2.884235   2.436654   5.677328   6.158286
    17  C    4.818091   3.797144   2.529289   7.107518   7.125852
    18  H    4.571218   4.901720   5.885628   4.335057   5.757108
    19  H    3.910816   4.262815   5.631161   1.070000   2.170950
    20  H    6.301216   5.504523   4.388736   8.118778   7.274105
    21  H    5.771044   5.130032   4.383371   7.147943   6.088472
                   11         12         13         14         15
    11  C    0.000000
    12  O    1.180818   0.000000
    13  N    1.339460   2.235387   0.000000
    14  C    2.472208   2.849991   1.450621   0.000000
    15  C    2.591232   3.139750   3.436485   4.711008   0.000000
    16  O    3.807736   4.398882   4.603173   5.971341   1.430239
    17  C    3.090289   3.794273   3.422229   4.522003   1.489907
    18  H    7.211323   7.456595   8.221617   9.585529   5.874287
    19  H    6.261500   6.257295   7.143753   8.155199   6.604216
    20  H    3.206088   3.698877   2.047263   1.070000   5.057838
    21  H    3.095285   3.447148   2.079812   1.070000   5.492340
                   16         17         18         19         20
    16  O    0.000000
    17  C    2.339578   0.000000
    18  H    4.852045   7.147221   0.000000
    19  H    6.415512   7.973326   4.302164   0.000000
    20  H    6.297295   4.545410  10.242294   9.082294   0.000000
    21  H    6.666480   5.416944   9.921506   8.079854   1.726888
                   21
    21  H    0.000000
 Stoichiometry    C10H4N3O4(3+)
 Framework group  C1[X(C10H4N3O4)]
 Deg. of freedom    57
 Full point group                 C1      NOp   1
 Largest Abelian subgroup         C1      NOp   1
 Largest concise Abelian subgroup C1      NOp   1
                         Standard orientation:                         
 ---------------------------------------------------------------------
 Center     Atomic      Atomic             Coordinates (Angstroms)
 Number     Number       Type             X           Y           Z
 ---------------------------------------------------------------------
      1          6           0       -3.819425    1.025592    0.162406
      2          8           0       -3.763136    1.132693    1.377644
      3          7           0       -3.094395    0.173001   -0.520498
      4          6           0       -2.168042   -0.799312    0.089091
      5          6           0       -0.851665   -0.493736   -0.524173
      6          8           0       -0.680521   -0.578790   -1.735846
      7          7           0        0.069294   -0.074399    0.323776
      8          6           0        1.308371    0.501682   -0.161372
      9          6           0       -2.535054   -2.239131   -0.234886
     10          6           0       -1.404108   -3.203988    0.150081
     11          6           0        2.424501   -0.317212    0.448413
     12          8           0        2.362429   -0.579183    1.598129
     13          7           0        3.431916   -0.665031   -0.362937
     14          6           0        4.628054   -1.368476    0.059816
     15          6           0        1.370553    2.033131    0.166338
     16          8           0        0.278165    2.685753   -0.486622
     17          6           0        2.614403    2.658119   -0.364749
     18          1           0       -4.459597    1.640126   -0.435448
     19          1           0       -3.448106   -2.481953    0.267382
     20          1           0        5.467685   -0.880094   -0.388961
     21          1           0        4.611287   -2.376881   -0.297589
 ---------------------------------------------------------------------
 Rotational constants (GHZ):           0.7473760           0.3079644           0.2481033
 Leave Link  202 at Wed Jan  5 16:30:24 2022, MaxMem=   402653184 cpu:               3.3 elap:               0.5
 (Enter /work/01114/jfonner/frontera/gaussian/16rC.01/g16/l301.exe)
 Standard basis: 6-31G (6D, 7F)
 Ernie: Thresh=  0.10000D-02 Tol=  0.10000D-05 Strict=F.
 There are   161 symmetry adapted cartesian basis functions of A   symmetry.
 There are   161 symmetry adapted basis functions of A   symmetry.
   161 basis functions,   390 primitive gaussians,   161 cartesian basis functions
    57 alpha electrons       57 beta electrons
       nuclear repulsion energy      1041.6433037302 Hartrees.
 IExCor= 4639 DFT=T Ex+Corr=wB97XD ExCW=0 ScaHFX=  1.000000
 ScaDFX=  1.000000  1.000000  1.000000  1.000000 ScalE2=  1.000000  1.000000
 IRadAn=      5 IRanWt=     -1 IRanGd=            0 ICorTp=0 IEmpDi=121
 HFx  wShort=  0.000000 wLong=  0.200000 cFull=  0.222036 cShort=  0.000000 cLong=  0.777964
 DFx  wShort=  0.000000 wLong=  0.200000 cFull=  0.000000 cShort=  0.000000 cLong=  1.000000
 NAtoms=   21 NActive=   21 NUniq=   21 SFac= 1.00D+00 NAtFMM=   60 NAOKFM=F Big=F
 Integral buffers will be    131072 words long.
 Raffenetti 2 integral format.
 Two-electron integral symmetry is turned on.
 R6Disp:  Grimme-D2 Dispersion energy=       -0.0104552209 Hartrees.
 Nuclear repulsion after empirical dispersion term =     1041.6328485093 Hartrees.
 Leave Link  301 at Wed Jan  5 16:30:25 2022, MaxMem=   402653184 cpu:               4.3 elap:               0.8
 (Enter /work/01114/jfonner/frontera/gaussian/16rC.01/g16/l302.exe)
 NPDir=0 NMtPBC=     1 NCelOv=     1 NCel=       1 NClECP=     1 NCelD=      1
         NCelK=      1 NCelE2=     1 NClLst=     1 CellRange=     0.0.
 One-electron integrals computed using PRISM.
 One-electron integral symmetry used in STVInt
 NBasis=   161 RedAO= T EigKep=  3.74D-03  NBF=   161
 NBsUse=   161 1.00D-06 EigRej= -1.00D+00 NBFU=   161
 Precomputing XC quadrature grid using
 IXCGrd= 4 IRadAn=           5 IRanWt=          -1 IRanGd=           0 AccXCQ= 1.00D-12.
 Generated NRdTot=       0 NPtTot=           0 NUsed=           0 NTot=          32
 NSgBfM=   160   160   160   160   160 MxSgAt=    21 MxSgA2=    21.
 Leave Link  302 at Wed Jan  5 16:30:35 2022, MaxMem=   402653184 cpu:              58.7 elap:              10.4
 (Enter /work/01114/jfonner/frontera/gaussian/16rC.01/g16/l303.exe)
 DipDrv:  MaxL=1.
 Leave Link  303 at Wed Jan  5 16:30:37 2022, MaxMem=   402653184 cpu:               9.1 elap:               2.0
 (Enter /work/01114/jfonner/frontera/gaussian/16rC.01/g16/l401.exe)
 ExpMin= 1.61D-01 ExpMax= 5.48D+03 ExpMxC= 8.25D+02 IAcc=3 IRadAn=         5 AccDes= 0.00D+00
 Harris functional with IExCor= 4639 and IRadAn=       5 diagonalized for initial guess.
 HarFok:  IExCor= 4639 AccDes= 0.00D+00 IRadAn=         5 IDoV= 1 UseB2=F ITyADJ=14
 ICtDFT=  3500011 ScaDFX=  1.000000  1.000000  1.000000  1.000000
 FoFCou: FMM=F IPFlag=           0 FMFlag=      100000 FMFlg1=           0
         NFxFlg=           0 DoJE=T BraDBF=F KetDBF=T FulRan=T
         wScrn=  0.000000 ICntrl=       500 IOpCl=  0 I1Cent=   200000004 NGrid=           0
         NMat0=    1 NMatS0=      1 NMatT0=    0 NMatD0=    1 NMtDS0=    0 NMtDT0=    0
 Petite list used in FoFCou.
 Harris En= -813.990206262987    
 JPrj=0 DoOrth=F DoCkMO=F.
 Leave Link  401 at Wed Jan  5 16:30:50 2022, MaxMem=   402653184 cpu:              87.1 elap:              12.5
 (Enter /work/01114/jfonner/frontera/gaussian/16rC.01/g16/l502.exe)
 Integral symmetry usage will be decided dynamically.
 Closed shell SCF:
 Using DIIS extrapolation, IDIIS=  1040.
 NGot=   402653184 LenX=   402589882 LenY=   402563520
 Requested convergence on RMS density matrix=1.00D-08 within 128 cycles.
 Requested convergence on MAX density matrix=1.00D-06.
 Requested convergence on             energy=1.00D-06.
 No special actions if energy rises.
 Fock matrices will be formed incrementally for  20 cycles.
 Integral accuracy reduced to 1.0D-05 until final iterations.

 Cycle   1  Pass 0  IDiag  1:
 FoFJK:  IHMeth= 1 ICntrl=       0 DoSepK=T KAlg= 0 I1Cent=           0 FoldK=F
 IRaf=         1 NMat=       1 IRICut=       1 DoRegI=T DoRafI=F ISym2E= 0 IDoP0=0 IntGTp=1.
 FoFCou: FMM=F IPFlag=           0 FMFlag=      100000 FMFlg1=           0
         NFxFlg=           0 DoJE=T BraDBF=F KetDBF=F FulRan=T
         wScrn=  0.000000 ICntrl=       500 IOpCl=  0 I1Cent=           0 NGrid=           0
         NMat0=    1 NMatS0=      1 NMatT0=    0 NMatD0=    1 NMtDS0=    0 NMtDT0=    0
 Symmetry not used in FoFCou.
 E= -844.603466626261    
 DIIS: error= 5.01D-02 at cycle   1 NSaved=   1.
 NSaved= 1 IEnMin= 1 EnMin= -844.603466626261     IErMin= 1 ErrMin= 5.01D-02
 ErrMax= 5.01D-02  0.00D+00 EMaxC= 1.00D-01 BMatC= 8.25D-01 BMatP= 8.25D-01
 IDIUse=3 WtCom= 4.99D-01 WtEn= 5.01D-01
 Coeff-Com:  0.100D+01
 Coeff-En:   0.100D+01
 Coeff:      0.100D+01
 Gap=    -0.274 Goal=   None    Shift=    0.000
 GapD=   -0.274 DampG=0.250 DampE=0.500 DampFc=0.2500 IDamp=-1.
 Damping current iteration by 2.50D-01
 RMSDP=2.04D-02 MaxDP=4.52D-01              OVMax= 8.63D-01

 Cycle   2  Pass 0  IDiag  1:
 RMSU=  5.09D-03    CP:  9.89D-01
 E= -844.134508296368     Delta-E=        0.468958329893 Rises=F Damp=T
 DIIS: error= 3.48D-02 at cycle   2 NSaved=   2.
 NSaved= 2 IEnMin= 1 EnMin= -844.603466626261     IErMin= 2 ErrMin= 3.48D-02
 ErrMax= 3.48D-02  0.00D+00 EMaxC= 1.00D-01 BMatC= 4.09D-01 BMatP= 8.25D-01
 IDIUse=3 WtCom= 6.52D-01 WtEn= 3.48D-01
 Coeff-Com:  0.203D+00 0.797D+00
 Coeff-En:   0.647D+00 0.353D+00
 Coeff:      0.357D+00 0.643D+00
 Gap=    -0.002 Goal=   None    Shift=    0.000
 RMSDP=8.40D-03 MaxDP=2.19D-01 DE= 4.69D-01 OVMax= 8.34D-01

 Cycle   3  Pass 0  IDiag  1:
 RMSU=  8.24D-03    CP:  1.01D+00  7.27D-01
 E= -844.490851005522     Delta-E=       -0.356342709154 Rises=F Damp=F
 DIIS: error= 5.69D-02 at cycle   3 NSaved=   3.
 NSaved= 3 IEnMin= 1 EnMin= -844.603466626261     IErMin= 2 ErrMin= 3.48D-02
 ErrMax= 5.69D-02  0.00D+00 EMaxC= 1.00D-01 BMatC= 9.24D-01 BMatP= 4.09D-01
 IDIUse=2 WtCom= 0.00D+00 WtEn= 1.00D+00
 EnCoef did     3 forward-backward iterations
 Coeff-En:   0.254D+00 0.327D+00 0.418D+00
 Coeff:      0.254D+00 0.327D+00 0.418D+00
 Gap=     0.134 Goal=   None    Shift=    0.000
 RMSDP=1.30D-02 MaxDP=4.33D-01 DE=-3.56D-01 OVMax= 9.37D-01

 Cycle   4  Pass 0  IDiag  1:
 RMSU=  9.04D-03    CP:  9.72D-01  2.04D+00  2.17D-01
 E= -839.514121704947     Delta-E=        4.976729300575 Rises=F Damp=F
 DIIS: error= 1.38D-01 at cycle   4 NSaved=   4.
 NSaved= 4 IEnMin= 1 EnMin= -844.603466626261     IErMin= 2 ErrMin= 3.48D-02
 ErrMax= 1.38D-01  0.00D+00 EMaxC= 1.00D-01 BMatC= 2.76D+00 BMatP= 4.09D-01
 IDIUse=2 WtCom= 0.00D+00 WtEn= 1.00D+00
 EnCoef did     2 forward-backward iterations
 Coeff-En:   0.279D+00 0.000D+00 0.511D+00 0.210D+00
 Coeff:      0.279D+00 0.000D+00 0.511D+00 0.210D+00
 Gap=    -0.140 Goal=   None    Shift=    0.000
 RMSDP=1.03D-02 MaxDP=4.12D-01 DE= 4.98D+00 OVMax= 9.33D-01

 Cycle   5  Pass 0  IDiag  1:
 RMSU=  7.03D-03    CP:  1.01D+00  1.09D+00  4.44D-01  4.12D-01
 E= -845.094016738647     Delta-E=       -5.579895033700 Rises=F Damp=F
 DIIS: error= 4.52D-02 at cycle   5 NSaved=   5.
 NSaved= 5 IEnMin= 5 EnMin= -845.094016738647     IErMin= 2 ErrMin= 3.48D-02
 ErrMax= 4.52D-02  0.00D+00 EMaxC= 1.00D-01 BMatC= 5.09D-01 BMatP= 4.09D-01
 IDIUse=2 WtCom= 0.00D+00 WtEn= 1.00D+00
 Coeff-En:   0.000D+00 0.000D+00 0.361D+00 0.000D+00 0.639D+00
 Coeff:      0.000D+00 0.000D+00 0.361D+00 0.000D+00 0.639D+00
 Gap=     0.076 Goal=   None    Shift=    0.000
 RMSDP=1.12D-02 MaxDP=3.17D-01 DE=-5.58D+00 OVMax= 8.75D-01

 Cycle   6  Pass 0  IDiag  1:
 RMSU=  7.99D-03    CP:  9.78D-01  1.14D+00  5.25D-01  4.28D-01 -9.15D-02
 E= -842.543473832405     Delta-E=        2.550542906242 Rises=F Damp=F
 DIIS: error= 1.88D-01 at cycle   6 NSaved=   6.
 NSaved= 6 IEnMin= 5 EnMin= -845.094016738647     IErMin= 2 ErrMin= 3.48D-02
 ErrMax= 1.88D-01  0.00D+00 EMaxC= 1.00D-01 BMatC= 2.27D+00 BMatP= 4.09D-01
 IDIUse=2 WtCom= 0.00D+00 WtEn= 1.00D+00
 EnCoef did     4 forward-backward iterations
 Coeff-En:   0.000D+00 0.000D+00 0.313D+00 0.000D+00 0.593D+00 0.937D-01
 Coeff:      0.000D+00 0.000D+00 0.313D+00 0.000D+00 0.593D+00 0.937D-01
 Gap=     0.065 Goal=   None    Shift=    0.000
 RMSDP=8.34D-03 MaxDP=2.84D-01 DE= 2.55D+00 OVMax= 9.84D-01

 Cycle   7  Pass 0  IDiag  1:
 RMSU=  3.77D-03    CP:  1.01D+00  7.04D-01  6.10D-01  2.19D-01  3.26D-01
                    CP:  2.42D-01
 E= -845.445035180524     Delta-E=       -2.901561348119 Rises=F Damp=F
 DIIS: error= 4.06D-02 at cycle   7 NSaved=   7.
 NSaved= 7 IEnMin= 7 EnMin= -845.445035180524     IErMin= 2 ErrMin= 3.48D-02
 ErrMax= 4.06D-02  0.00D+00 EMaxC= 1.00D-01 BMatC= 1.99D-01 BMatP= 4.09D-01
 IDIUse=3 WtCom= 5.94D-01 WtEn= 4.06D-01
 Coeff-Com: -0.465D-01 0.170D+00 0.138D+00-0.493D-02 0.325D+00 0.870D-02
 Coeff-Com:  0.409D+00
 Coeff-En:   0.000D+00 0.000D+00 0.000D+00 0.000D+00 0.333D+00 0.000D+00
 Coeff-En:   0.667D+00
 Coeff:     -0.277D-01 0.101D+00 0.821D-01-0.293D-02 0.328D+00 0.517D-02
 Coeff:      0.514D+00
 Gap=     0.073 Goal=   None    Shift=    0.000
 RMSDP=3.23D-03 MaxDP=1.22D-01 DE=-2.90D+00 OVMax= 3.25D-01

 Cycle   8  Pass 0  IDiag  1:
 RMSU=  2.16D-03    CP:  1.01D+00  8.79D-01  6.01D-01  2.58D-01  5.94D-01
                    CP:  1.63D-01  7.46D-01
 E= -845.636878893232     Delta-E=       -0.191843712708 Rises=F Damp=F
 DIIS: error= 1.31D-02 at cycle   8 NSaved=   8.
 NSaved= 8 IEnMin= 8 EnMin= -845.636878893232     IErMin= 8 ErrMin= 1.31D-02
 ErrMax= 1.31D-02  0.00D+00 EMaxC= 1.00D-01 BMatC= 3.12D-02 BMatP= 1.99D-01
 IDIUse=3 WtCom= 8.69D-01 WtEn= 1.31D-01
 Coeff-Com: -0.167D-01 0.282D-01-0.175D-01-0.362D-02 0.146D+00 0.163D-02
 Coeff-Com:  0.342D+00 0.520D+00
 Coeff-En:   0.000D+00 0.000D+00 0.000D+00 0.000D+00 0.000D+00 0.000D+00
 Coeff-En:   0.931D-01 0.907D+00
 Coeff:     -0.145D-01 0.245D-01-0.152D-01-0.315D-02 0.127D+00 0.141D-02
 Coeff:      0.310D+00 0.570D+00
 Gap=     0.107 Goal=   None    Shift=    0.000
 RMSDP=1.50D-03 MaxDP=4.22D-02 DE=-1.92D-01 OVMax= 1.05D-01

 Cycle   9  Pass 0  IDiag  1:
 RMSU=  1.12D-03    CP:  1.01D+00  8.93D-01  5.66D-01  2.85D-01  5.92D-01
                    CP:  2.01D-01  8.39D-01  6.36D-01
 E= -845.658080959322     Delta-E=       -0.021202066089 Rises=F Damp=F
 DIIS: error= 9.95D-03 at cycle   9 NSaved=   9.
 NSaved= 9 IEnMin= 9 EnMin= -845.658080959322     IErMin= 9 ErrMin= 9.95D-03
 ErrMax= 9.95D-03  0.00D+00 EMaxC= 1.00D-01 BMatC= 1.43D-02 BMatP= 3.12D-02
 IDIUse=3 WtCom= 9.00D-01 WtEn= 9.95D-02
 Coeff-Com:  0.576D-02-0.773D-02-0.240D-01-0.482D-03 0.157D-02 0.311D-02
 Coeff-Com:  0.538D-01 0.447D+00 0.521D+00
 Coeff-En:   0.000D+00 0.000D+00 0.000D+00 0.000D+00 0.000D+00 0.000D+00
 Coeff-En:   0.000D+00 0.289D+00 0.711D+00
 Coeff:      0.519D-02-0.696D-02-0.216D-01-0.434D-03 0.141D-02 0.280D-02
 Coeff:      0.484D-01 0.431D+00 0.540D+00
 Gap=     0.119 Goal=   None    Shift=    0.000
 RMSDP=8.67D-04 MaxDP=2.84D-02 DE=-2.12D-02 OVMax= 6.36D-02

 Cycle  10  Pass 0  IDiag  1:
 RMSU=  5.99D-04    CP:  1.01D+00  8.88D-01  5.68D-01  2.83D-01  6.01D-01
                    CP:  2.07D-01  8.00D-01  9.11D-01  9.22D-01
 E= -845.670787764742     Delta-E=       -0.012706805420 Rises=F Damp=F
 DIIS: error= 2.73D-03 at cycle  10 NSaved=  10.
 NSaved=10 IEnMin=10 EnMin= -845.670787764742     IErMin=10 ErrMin= 2.73D-03
 ErrMax= 2.73D-03  0.00D+00 EMaxC= 1.00D-01 BMatC= 1.98D-03 BMatP= 1.43D-02
 IDIUse=3 WtCom= 9.73D-01 WtEn= 2.73D-02
 Coeff-Com:  0.142D-01-0.219D-01-0.126D-01 0.290D-03-0.229D-01 0.539D-03
 Coeff-Com: -0.762D-02 0.205D+00 0.351D+00 0.494D+00
 Coeff-En:   0.000D+00 0.000D+00 0.000D+00 0.000D+00 0.000D+00 0.000D+00
 Coeff-En:   0.000D+00 0.000D+00 0.755D-02 0.992D+00
 Coeff:      0.138D-01-0.213D-01-0.122D-01 0.282D-03-0.223D-01 0.525D-03
 Coeff:     -0.741D-02 0.199D+00 0.342D+00 0.508D+00
 Gap=     0.123 Goal=   None    Shift=    0.000
 RMSDP=3.98D-04 MaxDP=5.21D-03 DE=-1.27D-02 OVMax= 3.11D-02

 Cycle  11  Pass 0  IDiag  1:
 RMSU=  2.75D-04    CP:  1.01D+00  8.95D-01  5.66D-01  2.85D-01  5.99D-01
                    CP:  2.13D-01  7.91D-01  9.46D-01  1.15D+00  1.10D+00
 E= -845.673224715817     Delta-E=       -0.002436951075 Rises=F Damp=F
 DIIS: error= 2.70D-03 at cycle  11 NSaved=  11.
 NSaved=11 IEnMin=11 EnMin= -845.673224715817     IErMin=11 ErrMin= 2.70D-03
 ErrMax= 2.70D-03  0.00D+00 EMaxC= 1.00D-01 BMatC= 1.01D-03 BMatP= 1.98D-03
 IDIUse=3 WtCom= 9.73D-01 WtEn= 2.70D-02
 Coeff-Com:  0.147D-01-0.234D-01-0.561D-02 0.309D-03-0.195D-01-0.167D-02
 Coeff-Com:  0.502D-02 0.773D-01 0.149D+00 0.280D+00 0.524D+00
 Coeff-En:   0.000D+00 0.000D+00 0.000D+00 0.000D+00 0.000D+00 0.000D+00
 Coeff-En:   0.000D+00 0.000D+00 0.000D+00 0.000D+00 0.100D+01
 Coeff:      0.143D-01-0.227D-01-0.545D-02 0.300D-03-0.190D-01-0.162D-02
 Coeff:      0.489D-02 0.753D-01 0.145D+00 0.272D+00 0.537D+00
 Gap=     0.123 Goal=   None    Shift=    0.000
 RMSDP=2.55D-04 MaxDP=2.79D-03 DE=-2.44D-03 OVMax= 2.14D-02

 Cycle  12  Pass 0  IDiag  1:
 RMSU=  1.06D-04    CP:  1.01D+00  8.93D-01  5.65D-01  2.86D-01  5.94D-01
                    CP:  2.17D-01  7.85D-01  9.73D-01  1.28D+00  1.34D+00
                    CP:  1.23D+00
 E= -845.674459216597     Delta-E=       -0.001234500780 Rises=F Damp=F
 DIIS: error= 2.64D-03 at cycle  12 NSaved=  12.
 NSaved=12 IEnMin=12 EnMin= -845.674459216597     IErMin=12 ErrMin= 2.64D-03
 ErrMax= 2.64D-03  0.00D+00 EMaxC= 1.00D-01 BMatC= 7.41D-04 BMatP= 1.01D-03
 IDIUse=3 WtCom= 9.74D-01 WtEn= 2.64D-02
 Coeff-Com:  0.117D-01-0.168D-01-0.118D-02-0.358D-03-0.120D-01-0.370D-02
 Coeff-Com:  0.207D-01 0.139D-01 0.299D-01-0.551D-01-0.946D-02 0.102D+01
 Coeff-En:   0.000D+00 0.000D+00 0.000D+00 0.000D+00 0.000D+00 0.000D+00
 Coeff-En:   0.000D+00 0.000D+00 0.000D+00 0.000D+00 0.000D+00 0.100D+01
 Coeff:      0.114D-01-0.164D-01-0.115D-02-0.349D-03-0.116D-01-0.360D-02
 Coeff:      0.201D-01 0.135D-01 0.291D-01-0.536D-01-0.921D-02 0.102D+01
 Gap=     0.121 Goal=   None    Shift=    0.000
 RMSDP=3.54D-04 MaxDP=4.32D-03 DE=-1.23D-03 OVMax= 2.58D-02

 Cycle  13  Pass 0  IDiag  1:
 RMSU=  1.25D-04    CP:  1.01D+00  8.87D-01  5.66D-01  2.85D-01  5.83D-01
                    CP:  2.20D-01  7.79D-01  9.92D-01  1.46D+00  1.64D+00
                    CP:  1.77D+00  1.75D+00
 E= -845.676098746463     Delta-E=       -0.001639529866 Rises=F Damp=F
 DIIS: error= 1.83D-03 at cycle  13 NSaved=  13.
 NSaved=13 IEnMin=13 EnMin= -845.676098746463     IErMin=13 ErrMin= 1.83D-03
 ErrMax= 1.83D-03  0.00D+00 EMaxC= 1.00D-01 BMatC= 3.80D-04 BMatP= 7.41D-04
 IDIUse=3 WtCom= 9.82D-01 WtEn= 1.83D-02
 Coeff-Com:  0.417D-02-0.569D-02-0.463D-02 0.278D-03 0.381D-03-0.202D-02
 Coeff-Com:  0.464D-02 0.803D-01 0.111D+00-0.138D+00-0.123D+01 0.335D+00
 Coeff-Com:  0.184D+01
 Coeff-En:   0.000D+00 0.000D+00 0.000D+00 0.000D+00 0.000D+00 0.000D+00
 Coeff-En:   0.000D+00 0.000D+00 0.000D+00 0.000D+00 0.000D+00 0.000D+00
 Coeff-En:   0.100D+01
 Coeff:      0.409D-02-0.558D-02-0.454D-02 0.273D-03 0.374D-03-0.198D-02
 Coeff:      0.455D-02 0.788D-01 0.109D+00-0.135D+00-0.121D+01 0.329D+00
 Coeff:      0.183D+01
 Gap=     0.120 Goal=   None    Shift=    0.000
 RMSDP=6.31D-04 MaxDP=9.82D-03 DE=-1.64D-03 OVMax= 4.30D-02

 Cycle  14  Pass 0  IDiag  1:
 RMSU=  1.84D-04    CP:  1.01D+00  8.72D-01  5.63D-01  2.84D-01  5.61D-01
                    CP:  2.22D-01  7.66D-01  1.00D+00  1.74D+00  2.09D+00
                    CP:  2.64D+00  3.00D+00  2.72D+00
 E= -845.678152177900     Delta-E=       -0.002053431437 Rises=F Damp=F
 DIIS: error= 6.17D-04 at cycle  14 NSaved=  14.
 NSaved=14 IEnMin=14 EnMin= -845.678152177900     IErMin=14 ErrMin= 6.17D-04
 ErrMax= 6.17D-04  0.00D+00 EMaxC= 1.00D-01 BMatC= 7.50D-05 BMatP= 3.80D-04
 IDIUse=3 WtCom= 9.94D-01 WtEn= 6.17D-03
 Coeff-Com:  0.817D-03-0.421D-03-0.262D-02 0.587D-04 0.420D-02-0.260D-03
 Coeff-Com: -0.426D-02 0.558D-01 0.607D-01-0.614D-01-0.777D+00 0.324D-02
 Coeff-Com:  0.110D+01 0.622D+00
 Coeff-En:   0.000D+00 0.000D+00 0.000D+00 0.000D+00 0.000D+00 0.000D+00
 Coeff-En:   0.000D+00 0.000D+00 0.000D+00 0.000D+00 0.000D+00 0.000D+00
 Coeff-En:   0.000D+00 0.100D+01
 Coeff:      0.812D-03-0.419D-03-0.260D-02 0.583D-04 0.417D-02-0.258D-03
 Coeff:     -0.424D-02 0.554D-01 0.603D-01-0.610D-01-0.772D+00 0.322D-02
 Coeff:      0.109D+01 0.624D+00
 Gap=     0.119 Goal=   None    Shift=    0.000
 RMSDP=2.39D-04 MaxDP=3.70D-03 DE=-2.05D-03 OVMax= 1.66D-02

 Cycle  15  Pass 0  IDiag  1:
 RMSU=  1.12D-04    CP:  1.01D+00  8.69D-01  5.63D-01  2.82D-01  5.52D-01
                    CP:  2.22D-01  7.61D-01  1.01D+00  1.84D+00  2.22D+00
                    CP:  2.94D+00  3.00D+00  3.00D+00  1.53D+00
 E= -845.678612672347     Delta-E=       -0.000460494447 Rises=F Damp=F
 DIIS: error= 8.54D-04 at cycle  15 NSaved=  15.
 NSaved=15 IEnMin=15 EnMin= -845.678612672347     IErMin=14 ErrMin= 6.17D-04
 ErrMax= 8.54D-04  0.00D+00 EMaxC= 1.00D-01 BMatC= 8.04D-05 BMatP= 7.50D-05
 IDIUse=3 WtCom= 9.94D-01 WtEn= 6.17D-03
 Coeff-Com: -0.834D-03 0.146D-02-0.113D-02 0.229D-03 0.202D-02-0.401D-03
 Coeff-Com: -0.352D-02 0.158D-01-0.591D-02 0.777D-02-0.907D-01 0.599D-01
 Coeff-Com:  0.346D-01 0.302D+00 0.679D+00
 Coeff-En:   0.000D+00 0.000D+00 0.000D+00 0.000D+00 0.000D+00 0.000D+00
 Coeff-En:   0.000D+00 0.000D+00 0.000D+00 0.000D+00 0.000D+00 0.000D+00
 Coeff-En:   0.000D+00 0.000D+00 0.100D+01
 Coeff:     -0.829D-03 0.145D-02-0.113D-02 0.228D-03 0.201D-02-0.398D-03
 Coeff:     -0.350D-02 0.158D-01-0.587D-02 0.773D-02-0.902D-01 0.595D-01
 Coeff:      0.343D-01 0.300D+00 0.681D+00
 Gap=     0.120 Goal=   None    Shift=    0.000
 RMSDP=9.61D-05 MaxDP=1.77D-03 DE=-4.60D-04 OVMax= 7.08D-03

 Cycle  16  Pass 0  IDiag  1:
 RMSU=  5.43D-05    CP:  1.01D+00  8.69D-01  5.62D-01  2.82D-01  5.49D-01
                    CP:  2.21D-01  7.61D-01  1.00D+00  1.85D+00  2.22D+00
                    CP:  2.97D+00  3.00D+00  3.00D+00  1.87D+00  1.39D+00
 E= -845.678803348512     Delta-E=       -0.000190676165 Rises=F Damp=F
 DIIS: error= 8.31D-04 at cycle  16 NSaved=  16.
 NSaved=16 IEnMin=16 EnMin= -845.678803348512     IErMin=14 ErrMin= 6.17D-04
 ErrMax= 8.31D-04  0.00D+00 EMaxC= 1.00D-01 BMatC= 6.71D-05 BMatP= 7.50D-05
 IDIUse=3 WtCom= 9.94D-01 WtEn= 6.17D-03
 Coeff-Com: -0.109D-02 0.155D-02-0.356D-03 0.302D-03 0.160D-02-0.480D-03
 Coeff-Com: -0.175D-02-0.650D-02-0.435D-01 0.391D-02 0.112D+00 0.152D+00
 Coeff-Com: -0.276D+00 0.844D-02 0.336D+00 0.714D+00
 Coeff-En:   0.000D+00 0.000D+00 0.000D+00 0.000D+00 0.000D+00 0.000D+00
 Coeff-En:   0.000D+00 0.000D+00 0.000D+00 0.000D+00 0.000D+00 0.000D+00
 Coeff-En:   0.000D+00 0.000D+00 0.000D+00 0.100D+01
 Coeff:     -0.108D-02 0.154D-02-0.354D-03 0.300D-03 0.159D-02-0.477D-03
 Coeff:     -0.174D-02-0.646D-02-0.432D-01 0.389D-02 0.111D+00 0.151D+00
 Coeff:     -0.274D+00 0.839D-02 0.333D+00 0.716D+00
 Gap=     0.121 Goal=   None    Shift=    0.000
 RMSDP=1.15D-04 MaxDP=1.95D-03 DE=-1.91D-04 OVMax= 7.84D-03

 Cycle  17  Pass 0  IDiag  1:
 RMSU=  3.54D-05    CP:  1.01D+00  8.69D-01  5.61D-01  2.81D-01  5.47D-01
                    CP:  2.20D-01  7.58D-01  1.00D+00  1.87D+00  2.27D+00
                    CP:  3.00D+00  3.00D+00  3.00D+00  2.21D+00  1.92D+00
                    CP:  1.85D+00
 E= -845.679041628340     Delta-E=       -0.000238279828 Rises=F Damp=F
 DIIS: error= 7.84D-04 at cycle  17 NSaved=  17.
 NSaved=17 IEnMin=17 EnMin= -845.679041628340     IErMin=14 ErrMin= 6.17D-04
 ErrMax= 7.84D-04  0.00D+00 EMaxC= 1.00D-01 BMatC= 4.86D-05 BMatP= 6.71D-05
 IDIUse=3 WtCom= 9.94D-01 WtEn= 6.17D-03
 Coeff-Com: -0.222D-04 0.326D-03 0.695D-04 0.767D-04 0.212D-02-0.486D-04
 Coeff-Com: -0.135D-02-0.913D-02-0.394D-01-0.445D-01-0.809D-01 0.208D+00
 Coeff-Com:  0.175D-01-0.146D+00-0.453D+00 0.155D+00 0.139D+01
 Coeff-En:   0.000D+00 0.000D+00 0.000D+00 0.000D+00 0.000D+00 0.000D+00
 Coeff-En:   0.000D+00 0.000D+00 0.000D+00 0.000D+00 0.000D+00 0.000D+00
 Coeff-En:   0.000D+00 0.000D+00 0.000D+00 0.000D+00 0.100D+01
 Coeff:     -0.221D-04 0.324D-03 0.690D-04 0.762D-04 0.211D-02-0.483D-04
 Coeff:     -0.135D-02-0.908D-02-0.392D-01-0.442D-01-0.804D-01 0.207D+00
 Coeff:      0.174D-01-0.145D+00-0.451D+00 0.154D+00 0.139D+01
 Gap=     0.123 Goal=   None    Shift=    0.000
 RMSDP=2.48D-04 MaxDP=4.49D-03 DE=-2.38D-04 OVMax= 1.68D-02

 Cycle  18  Pass 0  IDiag  1:
 RMSU=  5.98D-05    CP:  1.01D+00  8.69D-01  5.60D-01  2.81D-01  5.41D-01
                    CP:  2.20D-01  7.48D-01  1.01D+00  1.94D+00  2.39D+00
                    CP:  3.00D+00  3.00D+00  3.00D+00  2.89D+00  2.95D+00
                    CP:  3.00D+00  3.00D+00
 E= -845.679511118856     Delta-E=       -0.000469490516 Rises=F Damp=F
 DIIS: error= 5.93D-04 at cycle  18 NSaved=  18.
 NSaved=18 IEnMin=18 EnMin= -845.679511118856     IErMin=18 ErrMin= 5.93D-04
 ErrMax= 5.93D-04  0.00D+00 EMaxC= 1.00D-01 BMatC= 1.75D-05 BMatP= 4.86D-05
 IDIUse=3 WtCom= 9.94D-01 WtEn= 5.93D-03
 Coeff-Com:  0.103D-02-0.129D-02-0.382D-03-0.240D-05 0.423D-03 0.164D-03
 Coeff-Com:  0.311D-03 0.119D-01 0.120D-01-0.385D-01-0.198D+00 0.131D+00
 Coeff-Com:  0.168D+00-0.106D+00-0.495D+00-0.665D+00 0.106D+01 0.112D+01
 Coeff-En:   0.000D+00 0.000D+00 0.000D+00 0.000D+00 0.000D+00 0.000D+00
 Coeff-En:   0.000D+00 0.000D+00 0.000D+00 0.000D+00 0.000D+00 0.000D+00
 Coeff-En:   0.000D+00 0.000D+00 0.000D+00 0.000D+00 0.000D+00 0.100D+01
 Coeff:      0.102D-02-0.128D-02-0.380D-03-0.238D-05 0.421D-03 0.163D-03
 Coeff:      0.310D-03 0.119D-01 0.119D-01-0.383D-01-0.197D+00 0.130D+00
 Coeff:      0.167D+00-0.105D+00-0.492D+00-0.661D+00 0.105D+01 0.112D+01
 Gap=     0.124 Goal=   None    Shift=    0.000
 RMSDP=3.19D-04 MaxDP=5.86D-03 DE=-4.69D-04 OVMax= 2.45D-02

 Cycle  19  Pass 0  IDiag  1:
 RMSU=  2.42D-04    CP:  1.01D+00  8.70D-01  5.58D-01  2.80D-01  5.34D-01
                    CP:  2.17D-01  7.36D-01  1.01D+00  2.00D+00  2.52D+00
                    CP:  3.00D+00  3.00D+00  3.00D+00  3.00D+00  3.00D+00
                    CP:  3.00D+00  3.00D+00  3.00D+00
 E= -845.680030624982     Delta-E=       -0.000519506126 Rises=F Damp=F
 DIIS: error= 6.64D-04 at cycle  19 NSaved=  19.
 NSaved=19 IEnMin=19 EnMin= -845.680030624982     IErMin=18 ErrMin= 5.93D-04
 ErrMax= 6.64D-04  0.00D+00 EMaxC= 1.00D-01 BMatC= 2.05D-05 BMatP= 1.75D-05
 IDIUse=3 WtCom= 9.94D-01 WtEn= 5.93D-03
 Coeff-Com:  0.380D-03-0.745D-03-0.342D-03-0.253D-04-0.593D-03 0.169D-03
 Coeff-Com:  0.909D-03 0.157D-01 0.179D-01 0.501D-02 0.581D-04 0.367D-01
 Coeff-Com: -0.164D+00-0.235D-01 0.408D+00-0.192D+00-0.497D+00 0.618D+00
 Coeff-Com:  0.777D+00
 Coeff-En:   0.000D+00 0.000D+00 0.000D+00 0.000D+00 0.000D+00 0.000D+00
 Coeff-En:   0.000D+00 0.000D+00 0.000D+00 0.000D+00 0.000D+00 0.000D+00
 Coeff-En:   0.000D+00 0.000D+00 0.000D+00 0.000D+00 0.000D+00 0.000D+00
 Coeff-En:   0.100D+01
 Coeff:      0.378D-03-0.740D-03-0.340D-03-0.251D-04-0.590D-03 0.168D-03
 Coeff:      0.903D-03 0.156D-01 0.178D-01 0.498D-02 0.578D-04 0.365D-01
 Coeff:     -0.163D+00-0.234D-01 0.405D+00-0.191D+00-0.494D+00 0.614D+00
 Coeff:      0.778D+00
 Gap=     0.124 Goal=   None    Shift=    0.000
 RMSDP=1.25D-04 MaxDP=2.41D-03 DE=-5.20D-04 OVMax= 1.02D-02

 Cycle  20  Pass 0  IDiag  1:
 RMSU=  5.88D-05    CP:  1.01D+00  8.69D-01  5.58D-01  2.80D-01  5.30D-01
                    CP:  2.16D-01  7.33D-01  1.00D+00  2.01D+00  2.55D+00
                    CP:  3.00D+00  3.00D+00  3.00D+00  3.00D+00  3.00D+00
                    CP:  3.00D+00  3.00D+00  3.00D+00  1.42D+00
 E= -845.680233092237     Delta-E=       -0.000202467255 Rises=F Damp=F
 DIIS: error= 5.58D-04 at cycle  20 NSaved=  20.
 NSaved=20 IEnMin=20 EnMin= -845.680233092237     IErMin=20 ErrMin= 5.58D-04
 ErrMax= 5.58D-04  0.00D+00 EMaxC= 1.00D-01 BMatC= 1.46D-05 BMatP= 1.75D-05
 IDIUse=3 WtCom= 9.94D-01 WtEn= 5.58D-03
 Coeff-Com: -0.205D-04-0.278D-03 0.581D-05-0.116D-03-0.119D-02 0.182D-03
 Coeff-Com:  0.842D-03 0.941D-02 0.476D-02 0.294D-01 0.147D+00 0.717D-02
 Coeff-Com: -0.362D+00-0.574D-01 0.753D+00 0.227D+00-0.114D+01 0.111D+00
 Coeff-Com:  0.301D+00 0.969D+00
 Coeff-En:   0.000D+00 0.000D+00 0.000D+00 0.000D+00 0.000D+00 0.000D+00
 Coeff-En:   0.000D+00 0.000D+00 0.000D+00 0.000D+00 0.000D+00 0.000D+00
 Coeff-En:   0.000D+00 0.000D+00 0.000D+00 0.000D+00 0.000D+00 0.000D+00
 Coeff-En:   0.000D+00 0.100D+01
 Coeff:     -0.203D-04-0.276D-03 0.578D-05-0.115D-03-0.119D-02 0.181D-03
 Coeff:      0.837D-03 0.936D-02 0.473D-02 0.293D-01 0.146D+00 0.713D-02
 Coeff:     -0.360D+00-0.571D-01 0.749D+00 0.226D+00-0.113D+01 0.111D+00
 Coeff:      0.299D+00 0.969D+00
 Gap=     0.123 Goal=   None    Shift=    0.000
 RMSDP=1.90D-04 MaxDP=3.70D-03 DE=-2.02D-04 OVMax= 1.59D-02

 Cycle  21  Pass 0  IDiag  1:
 Restarting incremental Fock formation.
 E= -845.680518916256     Delta-E=       -0.000285824019 Rises=F Damp=F
 DIIS: error= 5.21D-04 at cycle  21 NSaved=  20.
 NSaved=20 IEnMin=20 EnMin= -845.680518916256     IErMin=20 ErrMin= 5.21D-04
 ErrMax= 5.21D-04  0.00D+00 EMaxC= 1.00D-01 BMatC= 1.32D-05 BMatP= 1.46D-05
 IDIUse=3 WtCom= 9.95D-01 WtEn= 5.21D-03
 Coeff-Com: -0.176D-03-0.323D-04-0.460D-04-0.170D-03-0.785D-04 0.377D-03
 Coeff-Com:  0.416D-02-0.116D-01 0.153D-01 0.418D-01 0.259D-01-0.128D+00
 Coeff-Com: -0.825D-01 0.386D+00 0.276D+00-0.642D+00-0.130D+00-0.128D+01
 Coeff-Com:  0.826D+00 0.170D+01
 Coeff-En:   0.000D+00 0.000D+00 0.000D+00 0.000D+00 0.000D+00 0.000D+00
 Coeff-En:   0.000D+00 0.000D+00 0.000D+00 0.000D+00 0.000D+00 0.000D+00
 Coeff-En:   0.000D+00 0.000D+00 0.000D+00 0.000D+00 0.000D+00 0.000D+00
 Coeff-En:   0.000D+00 0.100D+01
 Coeff:     -0.175D-03-0.321D-04-0.458D-04-0.169D-03-0.781D-04 0.375D-03
 Coeff:      0.414D-02-0.116D-01 0.152D-01 0.416D-01 0.258D-01-0.128D+00
 Coeff:     -0.820D-01 0.384D+00 0.274D+00-0.639D+00-0.130D+00-0.127D+01
 Coeff:      0.822D+00 0.169D+01
 Gap=     0.123 Goal=   None    Shift=    0.000
 RMSDP=4.54D-04 MaxDP=9.39D-03 DE=-2.86D-04 OVMax= 3.80D-02

 Cycle  22  Pass 0  IDiag  1:
 RMSU=  4.54D-04    CP:  1.00D+00
 E= -845.681133778759     Delta-E=       -0.000614862503 Rises=F Damp=F
 DIIS: error= 4.01D-04 at cycle  22 NSaved=  20.
 NSaved=20 IEnMin=20 EnMin= -845.681133778759     IErMin=20 ErrMin= 4.01D-04
 ErrMax= 4.01D-04  0.00D+00 EMaxC= 1.00D-01 BMatC= 9.86D-06 BMatP= 1.32D-05
 IDIUse=3 WtCom= 9.96D-01 WtEn= 4.01D-03
 Coeff-Com:  0.405D-03-0.435D-03-0.445D-03 0.878D-03-0.104D-02 0.802D-02
 Coeff-Com: -0.254D-02-0.149D-01-0.202D+00 0.887D-01 0.284D+00-0.366D-01
 Coeff-Com: -0.502D+00-0.280D+00 0.698D+00 0.254D+00-0.157D+01-0.201D+00
 Coeff-Com:  0.136D+01 0.111D+01
 Coeff-En:   0.000D+00 0.000D+00 0.000D+00 0.000D+00 0.000D+00 0.000D+00
 Coeff-En:   0.000D+00 0.000D+00 0.000D+00 0.000D+00 0.000D+00 0.000D+00
 Coeff-En:   0.000D+00 0.000D+00 0.000D+00 0.000D+00 0.000D+00 0.000D+00
 Coeff-En:   0.000D+00 0.100D+01
 Coeff:      0.403D-03-0.433D-03-0.444D-03 0.875D-03-0.103D-02 0.799D-02
 Coeff:     -0.253D-02-0.148D-01-0.201D+00 0.883D-01 0.283D+00-0.365D-01
 Coeff:     -0.500D+00-0.279D+00 0.695D+00 0.253D+00-0.156D+01-0.200D+00
 Coeff:      0.136D+01 0.111D+01
 Gap=     0.124 Goal=   None    Shift=    0.000
 RMSDP=4.96D-04 MaxDP=1.08D-02 DE=-6.15D-04 OVMax= 4.24D-02

 Cycle  23  Pass 0  IDiag  1:
 RMSU=  7.53D-05    CP:  1.00D+00  2.08D+00
 E= -845.681690326365     Delta-E=       -0.000556547607 Rises=F Damp=F
 DIIS: error= 3.54D-04 at cycle  23 NSaved=  20.
 NSaved=20 IEnMin=20 EnMin= -845.681690326365     IErMin=20 ErrMin= 3.54D-04
 ErrMax= 3.54D-04  0.00D+00 EMaxC= 1.00D-01 BMatC= 6.55D-06 BMatP= 9.86D-06
 IDIUse=3 WtCom= 9.96D-01 WtEn= 3.54D-03
 Coeff-Com:  0.104D-03-0.536D-03 0.590D-03-0.113D-03 0.108D-01 0.100D-01
 Coeff-Com:  0.290D-02-0.118D+00 0.454D-01 0.122D+00 0.685D-01-0.165D+00
 Coeff-Com: -0.249D+00 0.260D+00 0.347D+00-0.135D+00 0.279D-01-0.513D+00
 Coeff-Com: -0.256D+00 0.154D+01
 Coeff-En:   0.000D+00 0.000D+00 0.000D+00 0.000D+00 0.000D+00 0.000D+00
 Coeff-En:   0.000D+00 0.000D+00 0.000D+00 0.000D+00 0.000D+00 0.000D+00
 Coeff-En:   0.000D+00 0.000D+00 0.000D+00 0.000D+00 0.000D+00 0.000D+00
 Coeff-En:   0.000D+00 0.100D+01
 Coeff:      0.103D-03-0.534D-03 0.588D-03-0.112D-03 0.108D-01 0.996D-02
 Coeff:      0.289D-02-0.118D+00 0.452D-01 0.122D+00 0.682D-01-0.164D+00
 Coeff:     -0.248D+00 0.259D+00 0.346D+00-0.135D+00 0.278D-01-0.512D+00
 Coeff:     -0.255D+00 0.154D+01
 Gap=     0.122 Goal=   None    Shift=    0.000
 RMSDP=3.01D-04 MaxDP=6.83D-03 DE=-5.57D-04 OVMax= 2.91D-02

 Cycle  24  Pass 0  IDiag  1:
 RMSU=  6.41D-05    CP:  9.99D-01  2.69D+00  2.38D+00
 E= -845.681982095221     Delta-E=       -0.000291768856 Rises=F Damp=F
 DIIS: error= 2.97D-04 at cycle  24 NSaved=  20.
 NSaved=20 IEnMin=20 EnMin= -845.681982095221     IErMin=20 ErrMin= 2.97D-04
 ErrMax= 2.97D-04  0.00D+00 EMaxC= 1.00D-01 BMatC= 6.11D-06 BMatP= 6.55D-06
 IDIUse=3 WtCom= 9.97D-01 WtEn= 2.97D-03
 Coeff-Com: -0.187D-03-0.113D-02 0.207D-04 0.718D-02 0.203D-01 0.251D-01
 Coeff-Com:  0.482D-01-0.678D-01-0.139D+00 0.187D+00 0.437D+00 0.106D+00
 Coeff-Com: -0.117D+01 0.110D+00 0.140D+01 0.210D+00-0.917D+00-0.147D+01
 Coeff-Com: -0.997D-01 0.231D+01
 Coeff-En:   0.000D+00 0.000D+00 0.000D+00 0.000D+00 0.000D+00 0.000D+00
 Coeff-En:   0.000D+00 0.000D+00 0.000D+00 0.000D+00 0.000D+00 0.000D+00
 Coeff-En:   0.000D+00 0.000D+00 0.000D+00 0.000D+00 0.000D+00 0.000D+00
 Coeff-En:   0.000D+00 0.100D+01
 Coeff:     -0.186D-03-0.112D-02 0.206D-04 0.716D-02 0.202D-01 0.250D-01
 Coeff:      0.480D-01-0.676D-01-0.138D+00 0.187D+00 0.436D+00 0.106D+00
 Coeff:     -0.116D+01 0.109D+00 0.139D+01 0.209D+00-0.914D+00-0.147D+01
 Coeff:     -0.994D-01 0.231D+01
 Gap=     0.122 Goal=   None    Shift=    0.000
 RMSDP=7.15D-04 MaxDP=1.57D-02 DE=-2.92D-04 OVMax= 6.90D-02

 Cycle  25  Pass 0  IDiag  1:
 RMSU=  5.65D-04    CP:  9.99D-01  3.00D+00  3.00D+00  1.72D+00
 E= -845.682449080596     Delta-E=       -0.000466985375 Rises=F Damp=F
 DIIS: error= 1.48D-04 at cycle  25 NSaved=  20.
 NSaved=20 IEnMin=20 EnMin= -845.682449080596     IErMin=20 ErrMin= 1.48D-04
 ErrMax= 1.48D-04  0.00D+00 EMaxC= 1.00D-01 BMatC= 2.63D-06 BMatP= 6.11D-06
 IDIUse=3 WtCom= 9.99D-01 WtEn= 1.48D-03
 Coeff-Com: -0.241D-03-0.264D-03 0.590D-03-0.321D-03 0.976D-02-0.362D-02
 Coeff-Com: -0.537D-01-0.119D-01 0.792D-01 0.121D+00 0.281D+00-0.675D+00
 Coeff-Com: -0.161D-01 0.848D-01-0.629D-01 0.729D+00-0.434D+00-0.106D+01
 Coeff-Com:  0.971D+00 0.104D+01
 Coeff-En:   0.000D+00 0.000D+00 0.000D+00 0.000D+00 0.000D+00 0.000D+00
 Coeff-En:   0.000D+00 0.000D+00 0.000D+00 0.000D+00 0.000D+00 0.000D+00
 Coeff-En:   0.000D+00 0.000D+00 0.000D+00 0.000D+00 0.000D+00 0.000D+00
 Coeff-En:   0.000D+00 0.100D+01
 Coeff:     -0.241D-03-0.263D-03 0.589D-03-0.321D-03 0.975D-02-0.361D-02
 Coeff:     -0.536D-01-0.119D-01 0.791D-01 0.121D+00 0.281D+00-0.674D+00
 Coeff:     -0.161D-01 0.847D-01-0.628D-01 0.727D+00-0.434D+00-0.106D+01
 Coeff:      0.969D+00 0.104D+01
 Gap=     0.123 Goal=   None    Shift=    0.000
 RMSDP=2.65D-04 MaxDP=5.89D-03 DE=-4.67D-04 OVMax= 2.66D-02

 Cycle  26  Pass 0  IDiag  1:
 RMSU=  3.99D-05    CP:  9.98D-01  3.00D+00  3.00D+00  1.93D+00  1.46D+00
 E= -845.682552616844     Delta-E=       -0.000103536248 Rises=F Damp=F
 DIIS: error= 1.47D-04 at cycle  26 NSaved=  20.
 NSaved=20 IEnMin=20 EnMin= -845.682552616844     IErMin=20 ErrMin= 1.47D-04
 ErrMax= 1.47D-04  0.00D+00 EMaxC= 1.00D-01 BMatC= 1.07D-06 BMatP= 2.63D-06
 IDIUse=3 WtCom= 9.99D-01 WtEn= 1.47D-03
 Coeff-Com: -0.397D-03-0.197D-02-0.568D-02 0.469D-03-0.689D-02-0.154D-01
 Coeff-Com:  0.336D-01-0.105D-01-0.132D+00 0.210D+00 0.136D-01-0.121D+00
 Coeff-Com: -0.710D+00-0.163D-01 0.107D+01 0.355D+00-0.816D+00-0.264D+00
 Coeff-Com:  0.275D+00 0.114D+01
 Coeff-En:   0.000D+00 0.000D+00 0.000D+00 0.000D+00 0.000D+00 0.000D+00
 Coeff-En:   0.000D+00 0.000D+00 0.000D+00 0.000D+00 0.000D+00 0.000D+00
 Coeff-En:   0.000D+00 0.000D+00 0.000D+00 0.000D+00 0.000D+00 0.000D+00
 Coeff-En:   0.000D+00 0.100D+01
 Coeff:     -0.397D-03-0.196D-02-0.567D-02 0.468D-03-0.688D-02-0.153D-01
 Coeff:      0.335D-01-0.105D-01-0.132D+00 0.210D+00 0.136D-01-0.121D+00
 Coeff:     -0.709D+00-0.163D-01 0.107D+01 0.354D+00-0.814D+00-0.264D+00
 Coeff:      0.274D+00 0.114D+01
 Gap=     0.121 Goal=   None    Shift=    0.000
 RMSDP=1.62D-04 MaxDP=3.39D-03 DE=-1.04D-04 OVMax= 1.75D-02

 Cycle  27  Pass 0  IDiag  1:
 RMSU=  2.03D-05    CP:  9.98D-01  3.00D+00  3.00D+00  2.35D+00  1.73D+00
                    CP:  2.04D+00
 E= -845.682601659592     Delta-E=       -0.000049042748 Rises=F Damp=F
 DIIS: error= 7.67D-05 at cycle  27 NSaved=  20.
 NSaved=20 IEnMin=20 EnMin= -845.682601659592     IErMin=20 ErrMin= 7.67D-05
 ErrMax= 7.67D-05  0.00D+00 EMaxC= 1.00D-01 BMatC= 4.87D-07 BMatP= 1.07D-06
 IDIUse=1 WtCom= 1.00D+00 WtEn= 0.00D+00
 Coeff-Com: -0.542D-03-0.160D-02-0.528D-02 0.191D-01 0.334D-01-0.534D-01
 Coeff-Com:  0.289D-02 0.523D-01 0.354D-01-0.326D-01-0.775D-01-0.150D+00
 Coeff-Com:  0.327D+00-0.221D+00 0.585D-01 0.202D+00-0.271D+00-0.380D+00
 Coeff-Com: -0.127D+00 0.159D+01
 Coeff:     -0.542D-03-0.160D-02-0.528D-02 0.191D-01 0.334D-01-0.534D-01
 Coeff:      0.289D-02 0.523D-01 0.354D-01-0.326D-01-0.775D-01-0.150D+00
 Coeff:      0.327D+00-0.221D+00 0.585D-01 0.202D+00-0.271D+00-0.380D+00
 Coeff:     -0.127D+00 0.159D+01
 Gap=     0.121 Goal=   None    Shift=    0.000
 RMSDP=2.47D-04 MaxDP=5.19D-03 DE=-4.90D-05 OVMax= 2.65D-02

 Cycle  28  Pass 0  IDiag  1:
 RMSU=  2.87D-05    CP:  9.98D-01  3.00D+00  3.00D+00  2.61D+00  2.15D+00
                    CP:  3.00D+00  2.17D+00
 E= -845.682642997099     Delta-E=       -0.000041337507 Rises=F Damp=F
 DIIS: error= 5.93D-05 at cycle  28 NSaved=  20.
 NSaved=20 IEnMin=20 EnMin= -845.682642997099     IErMin=20 ErrMin= 5.93D-05
 ErrMax= 5.93D-05  0.00D+00 EMaxC= 1.00D-01 BMatC= 6.25D-07 BMatP= 4.87D-07
 IDIUse=1 WtCom= 1.00D+00 WtEn= 0.00D+00
 Coeff-Com:  0.959D-04-0.166D-02-0.960D-03 0.172D-01-0.147D-01 0.137D-01
 Coeff-Com:  0.297D-02 0.159D-02-0.181D-01-0.257D-01-0.332D-01 0.208D+00
 Coeff-Com: -0.166D+00-0.246D-01 0.267D+00-0.233D+00-0.322D+00-0.205D+00
 Coeff-Com:  0.788D+00 0.747D+00
 Coeff:      0.959D-04-0.166D-02-0.960D-03 0.172D-01-0.147D-01 0.137D-01
 Coeff:      0.297D-02 0.159D-02-0.181D-01-0.257D-01-0.332D-01 0.208D+00
 Coeff:     -0.166D+00-0.246D-01 0.267D+00-0.233D+00-0.322D+00-0.205D+00
 Coeff:      0.788D+00 0.747D+00
 Gap=     0.121 Goal=   None    Shift=    0.000
 RMSDP=7.11D-05 MaxDP=1.30D-03 DE=-4.13D-05 OVMax= 8.06D-03

 Cycle  29  Pass 0  IDiag  1:
 RMSU=  1.95D-05    CP:  9.97D-01  3.00D+00  3.00D+00  2.71D+00  2.26D+00
                    CP:  3.00D+00  2.75D+00  1.75D+00
 E= -845.682650665783     Delta-E=       -0.000007668684 Rises=F Damp=F
 DIIS: error= 4.05D-05 at cycle  29 NSaved=  20.
 NSaved=20 IEnMin=20 EnMin= -845.682650665783     IErMin=20 ErrMin= 4.05D-05
 ErrMax= 4.05D-05  0.00D+00 EMaxC= 1.00D-01 BMatC= 1.47D-07 BMatP= 4.87D-07
 IDIUse=1 WtCom= 1.00D+00 WtEn= 0.00D+00
 Coeff-Com:  0.351D-02 0.122D-03-0.307D-02-0.530D-02 0.199D-01 0.106D-02
 Coeff-Com:  0.350D-01-0.665D-01 0.119D-01 0.105D+00-0.497D-01-0.181D-01
 Coeff-Com: -0.156D+00 0.157D+00 0.930D-03 0.190D-01 0.687D-01-0.521D+00
 Coeff-Com: -0.111D-03 0.140D+01
 Coeff:      0.351D-02 0.122D-03-0.307D-02-0.530D-02 0.199D-01 0.106D-02
 Coeff:      0.350D-01-0.665D-01 0.119D-01 0.105D+00-0.497D-01-0.181D-01
 Coeff:     -0.156D+00 0.157D+00 0.930D-03 0.190D-01 0.687D-01-0.521D+00
 Coeff:     -0.111D-03 0.140D+01
 Gap=     0.120 Goal=   None    Shift=    0.000
 RMSDP=8.40D-05 MaxDP=1.50D-03 DE=-7.67D-06 OVMax= 9.57D-03

 Cycle  30  Pass 0  IDiag  1:
 RMSU=  1.08D-05    CP:  9.97D-01  3.00D+00  3.00D+00  2.78D+00  2.40D+00
                    CP:  3.00D+00  3.00D+00  2.67D+00  1.76D+00
 E= -845.682655314915     Delta-E=       -0.000004649132 Rises=F Damp=F
 DIIS: error= 2.25D-05 at cycle  30 NSaved=  20.
 NSaved=20 IEnMin=20 EnMin= -845.682655314915     IErMin=20 ErrMin= 2.25D-05
 ErrMax= 2.25D-05  0.00D+00 EMaxC= 1.00D-01 BMatC= 4.10D-08 BMatP= 1.47D-07
 IDIUse=1 WtCom= 1.00D+00 WtEn= 0.00D+00
 Coeff-Com:  0.146D-02 0.155D-02-0.818D-02 0.151D-01 0.399D-01 0.212D-01
 Coeff-Com: -0.862D-01-0.921D-02 0.585D-01 0.964D-02-0.473D-01-0.858D-01
 Coeff-Com:  0.625D-01 0.951D-01 0.586D-03 0.515D-01-0.276D+00-0.160D+00
 Coeff-Com:  0.378D+00 0.937D+00
 Coeff:      0.146D-02 0.155D-02-0.818D-02 0.151D-01 0.399D-01 0.212D-01
 Coeff:     -0.862D-01-0.921D-02 0.585D-01 0.964D-02-0.473D-01-0.858D-01
 Coeff:      0.625D-01 0.951D-01 0.586D-03 0.515D-01-0.276D+00-0.160D+00
 Coeff:      0.378D+00 0.937D+00
 Gap=     0.120 Goal=   None    Shift=    0.000
 RMSDP=1.34D-05 MaxDP=2.53D-04 DE=-4.65D-06 OVMax= 1.45D-03

 Cycle  31  Pass 0  IDiag  1:
 RMSU=  6.28D-06    CP:  9.97D-01  3.00D+00  3.00D+00  2.77D+00  2.41D+00
                    CP:  3.00D+00  3.00D+00  2.88D+00  2.00D+00  1.38D+00
 E= -845.682656118022     Delta-E=       -0.000000803107 Rises=F Damp=F
 DIIS: error= 1.65D-05 at cycle  31 NSaved=  20.
 NSaved=20 IEnMin=20 EnMin= -845.682656118022     IErMin=20 ErrMin= 1.65D-05
 ErrMax= 1.65D-05  0.00D+00 EMaxC= 1.00D-01 BMatC= 1.87D-08 BMatP= 4.10D-08
 IDIUse=1 WtCom= 1.00D+00 WtEn= 0.00D+00
 Coeff-Com:  0.144D-02-0.433D-03 0.568D-02 0.359D-02-0.243D-02-0.836D-02
 Coeff-Com:  0.506D-02 0.178D-01-0.561D-02-0.338D-01-0.223D-01 0.957D-02
 Coeff-Com:  0.644D-01 0.165D-02 0.200D-01-0.100D+00-0.818D-01-0.625D-01
 Coeff-Com:  0.420D+00 0.769D+00
 Coeff:      0.144D-02-0.433D-03 0.568D-02 0.359D-02-0.243D-02-0.836D-02
 Coeff:      0.506D-02 0.178D-01-0.561D-02-0.338D-01-0.223D-01 0.957D-02
 Coeff:      0.644D-01 0.165D-02 0.200D-01-0.100D+00-0.818D-01-0.625D-01
 Coeff:      0.420D+00 0.769D+00
 Gap=     0.120 Goal=   None    Shift=    0.000
 RMSDP=1.64D-05 MaxDP=2.96D-04 DE=-8.03D-07 OVMax= 1.95D-03

 Cycle  32  Pass 0  IDiag  1:
 RMSU=  2.64D-06    CP:  9.97D-01  3.00D+00  3.00D+00  2.79D+00  2.44D+00
                    CP:  3.00D+00  3.00D+00  3.00D+00  2.13D+00  1.83D+00
                    CP:  1.19D+00
 E= -845.682656605429     Delta-E=       -0.000000487407 Rises=F Damp=F
 DIIS: error= 1.28D-05 at cycle  32 NSaved=  20.
 NSaved=20 IEnMin=20 EnMin= -845.682656605429     IErMin=20 ErrMin= 1.28D-05
 ErrMax= 1.28D-05  0.00D+00 EMaxC= 1.00D-01 BMatC= 1.43D-08 BMatP= 1.87D-08
 IDIUse=1 WtCom= 1.00D+00 WtEn= 0.00D+00
 Coeff-Com: -0.121D-02 0.107D-02-0.220D-02-0.582D-03-0.252D-02-0.102D-01
 Coeff-Com: -0.127D-01 0.276D-01 0.110D-01 0.349D-01-0.516D-01 0.278D-02
 Coeff-Com: -0.293D-01-0.562D-01 0.170D+00 0.854D-01-0.256D+00-0.556D+00
 Coeff-Com:  0.379D+00 0.127D+01
 Coeff:     -0.121D-02 0.107D-02-0.220D-02-0.582D-03-0.252D-02-0.102D-01
 Coeff:     -0.127D-01 0.276D-01 0.110D-01 0.349D-01-0.516D-01 0.278D-02
 Coeff:     -0.293D-01-0.562D-01 0.170D+00 0.854D-01-0.256D+00-0.556D+00
 Coeff:      0.379D+00 0.127D+01
 Gap=     0.120 Goal=   None    Shift=    0.000
 RMSDP=9.77D-06 MaxDP=2.14D-04 DE=-4.87D-07 OVMax= 7.24D-04

 Initial convergence to 1.0D-05 achieved.  Increase integral accuracy.
 Cycle  33  Pass 1  IDiag  1:
 E= -845.682644606673     Delta-E=        0.000011998756 Rises=F Damp=F
 DIIS: error= 1.09D-05 at cycle   1 NSaved=   1.
 NSaved= 1 IEnMin= 1 EnMin= -845.682644606673     IErMin= 1 ErrMin= 1.09D-05
 ErrMax= 1.09D-05  0.00D+00 EMaxC= 1.00D-01 BMatC= 5.98D-08 BMatP= 5.98D-08
 IDIUse=1 WtCom= 1.00D+00 WtEn= 0.00D+00
 Coeff-Com:  0.100D+01
 Coeff:      0.100D+01
 Gap=     0.120 Goal=   None    Shift=    0.000
 RMSDP=9.77D-06 MaxDP=2.14D-04 DE= 1.20D-05 OVMax= 1.53D-04

 Cycle  34  Pass 1  IDiag  1:
 RMSU=  7.70D-06    CP:  1.00D+00
 E= -845.682644719404     Delta-E=       -0.000000112732 Rises=F Damp=F
 DIIS: error= 9.00D-06 at cycle   2 NSaved=   2.
 NSaved= 2 IEnMin= 2 EnMin= -845.682644719404     IErMin= 2 ErrMin= 9.00D-06
 ErrMax= 9.00D-06  0.00D+00 EMaxC= 1.00D-01 BMatC= 1.57D-08 BMatP= 5.98D-08
 IDIUse=1 WtCom= 1.00D+00 WtEn= 0.00D+00
 Coeff-Com:  0.215D+00 0.785D+00
 Coeff:      0.215D+00 0.785D+00
 Gap=     0.120 Goal=   None    Shift=    0.000
 RMSDP=2.21D-06 MaxDP=7.98D-05 DE=-1.13D-07 OVMax= 1.99D-04

 Cycle  35  Pass 1  IDiag  1:
 RMSU=  2.11D-06    CP:  1.00D+00  1.08D+00
 E= -845.682644734408     Delta-E=       -0.000000015004 Rises=F Damp=F
 DIIS: error= 1.05D-05 at cycle   3 NSaved=   3.
 NSaved= 3 IEnMin= 3 EnMin= -845.682644734408     IErMin= 2 ErrMin= 9.00D-06
 ErrMax= 1.05D-05  0.00D+00 EMaxC= 1.00D-01 BMatC= 3.62D-08 BMatP= 1.57D-08
 IDIUse=1 WtCom= 1.00D+00 WtEn= 0.00D+00
 Coeff-Com: -0.575D-01 0.641D+00 0.416D+00
 Coeff:     -0.575D-01 0.641D+00 0.416D+00
 Gap=     0.120 Goal=   None    Shift=    0.000
 RMSDP=1.40D-06 MaxDP=4.09D-05 DE=-1.50D-08 OVMax= 1.06D-04

 Cycle  36  Pass 1  IDiag  1:
 RMSU=  1.28D-06    CP:  1.00D+00  1.15D+00  8.61D-01
 E= -845.682644777472     Delta-E=       -0.000000043064 Rises=F Damp=F
 DIIS: error= 6.38D-06 at cycle   4 NSaved=   4.
 NSaved= 4 IEnMin= 4 EnMin= -845.682644777472     IErMin= 4 ErrMin= 6.38D-06
 ErrMax= 6.38D-06  0.00D+00 EMaxC= 1.00D-01 BMatC= 3.50D-09 BMatP= 1.57D-08
 IDIUse=1 WtCom= 1.00D+00 WtEn= 0.00D+00
 Coeff-Com: -0.628D-01 0.360D+00 0.257D+00 0.446D+00
 Coeff:     -0.628D-01 0.360D+00 0.257D+00 0.446D+00
 Gap=     0.120 Goal=   None    Shift=    0.000
 RMSDP=7.56D-07 MaxDP=1.28D-05 DE=-4.31D-08 OVMax= 7.64D-05

 Cycle  37  Pass 1  IDiag  1:
 RMSU=  5.10D-07    CP:  1.00D+00  1.17D+00  1.06D+00  1.24D+00
 E= -845.682644791391     Delta-E=       -0.000000013918 Rises=F Damp=F
 DIIS: error= 4.80D-06 at cycle   5 NSaved=   5.
 NSaved= 5 IEnMin= 5 EnMin= -845.682644791391     IErMin= 5 ErrMin= 4.80D-06
 ErrMax= 4.80D-06  0.00D+00 EMaxC= 1.00D-01 BMatC= 1.33D-09 BMatP= 3.50D-09
 IDIUse=1 WtCom= 1.00D+00 WtEn= 0.00D+00
 Coeff-Com:  0.875D-02-0.184D+00-0.218D+00 0.211D-01 0.137D+01
 Coeff:      0.875D-02-0.184D+00-0.218D+00 0.211D-01 0.137D+01
 Gap=     0.120 Goal=   None    Shift=    0.000
 RMSDP=1.98D-06 MaxDP=3.95D-05 DE=-1.39D-08 OVMax= 2.16D-04

 Cycle  38  Pass 1  IDiag  1:
 RMSU=  3.43D-07    CP:  1.00D+00  1.24D+00  1.56D+00  2.37D+00  2.16D+00
 E= -845.682644821486     Delta-E=       -0.000000030095 Rises=F Damp=F
 DIIS: error= 4.19D-06 at cycle   6 NSaved=   6.
 NSaved= 6 IEnMin= 6 EnMin= -845.682644821486     IErMin= 6 ErrMin= 4.19D-06
 ErrMax= 4.19D-06  0.00D+00 EMaxC= 1.00D-01 BMatC= 1.49D-09 BMatP= 1.33D-09
 IDIUse=1 WtCom= 1.00D+00 WtEn= 0.00D+00
 Coeff-Com:  0.453D-01-0.361D+00-0.378D+00-0.305D+00 0.131D+01 0.685D+00
 Coeff:      0.453D-01-0.361D+00-0.378D+00-0.305D+00 0.131D+01 0.685D+00
 Gap=     0.120 Goal=   None    Shift=    0.000
 RMSDP=1.90D-06 MaxDP=3.80D-05 DE=-3.01D-08 OVMax= 2.14D-04

 Cycle  39  Pass 1  IDiag  1:
 RMSU=  6.52D-07    CP:  1.00D+00  1.30D+00  2.04D+00  3.00D+00  3.00D+00
                    CP:  1.58D+00
 E= -845.682644845244     Delta-E=       -0.000000023758 Rises=F Damp=F
 DIIS: error= 3.34D-06 at cycle   7 NSaved=   7.
 NSaved= 7 IEnMin= 7 EnMin= -845.682644845244     IErMin= 7 ErrMin= 3.34D-06
 ErrMax= 3.34D-06  0.00D+00 EMaxC= 1.00D-01 BMatC= 5.43D-10 BMatP= 1.33D-09
 IDIUse=1 WtCom= 1.00D+00 WtEn= 0.00D+00
 Coeff-Com:  0.232D-01-0.860D-01-0.119D+00-0.262D+00 0.583D-01 0.235D+00
 Coeff-Com:  0.115D+01
 Coeff:      0.232D-01-0.860D-01-0.119D+00-0.262D+00 0.583D-01 0.235D+00
 Coeff:      0.115D+01
 Gap=     0.120 Goal=   None    Shift=    0.000
 RMSDP=2.21D-06 MaxDP=4.54D-05 DE=-2.38D-08 OVMax= 2.57D-04

 Cycle  40  Pass 1  IDiag  1:
 RMSU=  6.49D-07    CP:  1.00D+00  1.36D+00  2.59D+00  3.00D+00  3.00D+00
                    CP:  2.84D+00  3.00D+00
 E= -845.682644865992     Delta-E=       -0.000000020749 Rises=F Damp=F
 DIIS: error= 2.77D-06 at cycle   8 NSaved=   8.
 NSaved= 8 IEnMin= 8 EnMin= -845.682644865992     IErMin= 8 ErrMin= 2.77D-06
 ErrMax= 2.77D-06  0.00D+00 EMaxC= 1.00D-01 BMatC= 4.16D-10 BMatP= 5.43D-10
 IDIUse=1 WtCom= 1.00D+00 WtEn= 0.00D+00
 Coeff-Com: -0.136D-01 0.183D+00 0.139D+00-0.255D-01-0.720D+00-0.460D+00
 Coeff-Com:  0.788D+00 0.111D+01
 Coeff:     -0.136D-01 0.183D+00 0.139D+00-0.255D-01-0.720D+00-0.460D+00
 Coeff:      0.788D+00 0.111D+01
 Gap=     0.120 Goal=   None    Shift=    0.000
 RMSDP=2.55D-06 MaxDP=5.33D-05 DE=-2.07D-08 OVMax= 3.06D-04

 Cycle  41  Pass 1  IDiag  1:
 RMSU=  1.55D-06    CP:  1.00D+00  1.44D+00  3.00D+00  3.00D+00  3.00D+00
                    CP:  3.00D+00  3.00D+00  3.00D+00
 E= -845.682644882591     Delta-E=       -0.000000016599 Rises=F Damp=F
 DIIS: error= 1.96D-06 at cycle   9 NSaved=   9.
 NSaved= 9 IEnMin= 9 EnMin= -845.682644882591     IErMin= 9 ErrMin= 1.96D-06
 ErrMax= 1.96D-06  0.00D+00 EMaxC= 1.00D-01 BMatC= 2.92D-10 BMatP= 4.16D-10
 IDIUse=1 WtCom= 1.00D+00 WtEn= 0.00D+00
 Coeff-Com: -0.176D-01 0.164D+00 0.124D+00 0.836D-01-0.474D+00-0.435D+00
 Coeff-Com:  0.962D-01 0.868D+00 0.590D+00
 Coeff:     -0.176D-01 0.164D+00 0.124D+00 0.836D-01-0.474D+00-0.435D+00
 Coeff:      0.962D-01 0.868D+00 0.590D+00
 Gap=     0.120 Goal=   None    Shift=    0.000
 RMSDP=9.73D-07 MaxDP=2.02D-05 DE=-1.66D-08 OVMax= 1.21D-04

 Cycle  42  Pass 1  IDiag  1:
 RMSU=  5.51D-07    CP:  1.00D+00  1.46D+00  3.00D+00  3.00D+00  3.00D+00
                    CP:  3.00D+00  3.00D+00  3.00D+00  1.50D+00
 E= -845.682644887537     Delta-E=       -0.000000004946 Rises=F Damp=F
 DIIS: error= 1.95D-06 at cycle  10 NSaved=  10.
 NSaved=10 IEnMin=10 EnMin= -845.682644887537     IErMin=10 ErrMin= 1.95D-06
 ErrMax= 1.95D-06  0.00D+00 EMaxC= 1.00D-01 BMatC= 1.54D-10 BMatP= 2.92D-10
 IDIUse=1 WtCom= 1.00D+00 WtEn= 0.00D+00
 Coeff-Com:  0.395D-02-0.758D-01-0.952D-01 0.813D-01 0.423D+00 0.170D+00
 Coeff-Com: -0.784D+00-0.240D+00 0.156D+00 0.136D+01
 Coeff:      0.395D-02-0.758D-01-0.952D-01 0.813D-01 0.423D+00 0.170D+00
 Coeff:     -0.784D+00-0.240D+00 0.156D+00 0.136D+01
 Gap=     0.120 Goal=   None    Shift=    0.000
 RMSDP=1.29D-06 MaxDP=2.63D-05 DE=-4.95D-09 OVMax= 1.62D-04

 Cycle  43  Pass 1  IDiag  1:
 RMSU=  3.02D-07    CP:  1.00D+00  1.49D+00  3.00D+00  3.00D+00  3.00D+00
                    CP:  3.00D+00  3.00D+00  3.00D+00  2.17D+00  2.21D+00
 E= -845.682644893471     Delta-E=       -0.000000005934 Rises=F Damp=F
 DIIS: error= 1.54D-06 at cycle  11 NSaved=  11.
 NSaved=11 IEnMin=11 EnMin= -845.682644893471     IErMin=11 ErrMin= 1.54D-06
 ErrMax= 1.54D-06  0.00D+00 EMaxC= 1.00D-01 BMatC= 1.28D-10 BMatP= 1.54D-10
 IDIUse=1 WtCom= 1.00D+00 WtEn= 0.00D+00
 Coeff-Com:  0.743D-02-0.870D-01-0.996D-01 0.274D-01 0.364D+00 0.245D+00
 Coeff-Com: -0.529D+00-0.239D+00-0.244D+00 0.669D+00 0.885D+00
 Coeff:      0.743D-02-0.870D-01-0.996D-01 0.274D-01 0.364D+00 0.245D+00
 Coeff:     -0.529D+00-0.239D+00-0.244D+00 0.669D+00 0.885D+00
 Gap=     0.120 Goal=   None    Shift=    0.000
 RMSDP=7.42D-07 MaxDP=1.38D-05 DE=-5.93D-09 OVMax= 9.05D-05

 Cycle  44  Pass 1  IDiag  1:
 RMSU=  9.30D-08    CP:  1.00D+00  1.51D+00  3.00D+00  3.00D+00  3.00D+00
                    CP:  3.00D+00  3.00D+00  3.00D+00  2.54D+00  2.85D+00
                    CP:  1.97D+00
 E= -845.682644896659     Delta-E=       -0.000000003188 Rises=F Damp=F
 DIIS: error= 1.45D-06 at cycle  12 NSaved=  12.
 NSaved=12 IEnMin=12 EnMin= -845.682644896659     IErMin=12 ErrMin= 1.45D-06
 ErrMax= 1.45D-06  0.00D+00 EMaxC= 1.00D-01 BMatC= 1.03D-10 BMatP= 1.28D-10
 IDIUse=1 WtCom= 1.00D+00 WtEn= 0.00D+00
 Coeff-Com:  0.688D-03 0.211D-01 0.737D-02-0.410D-01-0.163D+00 0.342D-01
 Coeff-Com:  0.214D+00 0.304D+00-0.414D+00-0.707D+00 0.344D+00 0.140D+01
 Coeff:      0.688D-03 0.211D-01 0.737D-02-0.410D-01-0.163D+00 0.342D-01
 Coeff:      0.214D+00 0.304D+00-0.414D+00-0.707D+00 0.344D+00 0.140D+01
 Gap=     0.120 Goal=   None    Shift=    0.000
 RMSDP=1.03D-06 MaxDP=1.89D-05 DE=-3.19D-09 OVMax= 1.20D-04

 Cycle  45  Pass 1  IDiag  1:
 RMSU=  4.38D-07    CP:  1.00D+00  1.52D+00  3.00D+00  3.00D+00  3.00D+00
                    CP:  3.00D+00  3.00D+00  3.00D+00  3.00D+00  3.00D+00
                    CP:  3.00D+00  2.98D+00
 E= -845.682644900840     Delta-E=       -0.000000004181 Rises=F Damp=F
 DIIS: error= 1.31D-06 at cycle  13 NSaved=  13.
 NSaved=13 IEnMin=13 EnMin= -845.682644900840     IErMin=13 ErrMin= 1.31D-06
 ErrMax= 1.31D-06  0.00D+00 EMaxC= 1.00D-01 BMatC= 9.34D-11 BMatP= 1.03D-10
 IDIUse=1 WtCom= 1.00D+00 WtEn= 0.00D+00
 Coeff-Com: -0.649D-02 0.101D+00 0.855D-01-0.484D-01-0.470D+00-0.166D+00
 Coeff-Com:  0.517D+00 0.642D+00-0.192D+00-0.111D+01-0.752D+00 0.144D+01
 Coeff-Com:  0.964D+00
 Coeff:     -0.649D-02 0.101D+00 0.855D-01-0.484D-01-0.470D+00-0.166D+00
 Coeff:      0.517D+00 0.642D+00-0.192D+00-0.111D+01-0.752D+00 0.144D+01
 Coeff:      0.964D+00
 Gap=     0.120 Goal=   None    Shift=    0.000
 RMSDP=1.19D-06 MaxDP=2.29D-05 DE=-4.18D-09 OVMax= 1.35D-04

 Cycle  46  Pass 1  IDiag  1:
 RMSU=  8.88D-07    CP:  1.00D+00  1.54D+00  3.00D+00  3.00D+00  3.00D+00
                    CP:  3.00D+00  3.00D+00  3.00D+00  3.00D+00  3.00D+00
                    CP:  3.00D+00  3.00D+00  2.78D+00
 E= -845.682644905094     Delta-E=       -0.000000004254 Rises=F Damp=F
 DIIS: error= 1.06D-06 at cycle  14 NSaved=  14.
 NSaved=14 IEnMin=14 EnMin= -845.682644905094     IErMin=14 ErrMin= 1.06D-06
 ErrMax= 1.06D-06  0.00D+00 EMaxC= 1.00D-01 BMatC= 6.45D-11 BMatP= 9.34D-11
 IDIUse=1 WtCom= 1.00D+00 WtEn= 0.00D+00
 Coeff-Com: -0.591D-02 0.673D-01 0.567D-01-0.440D-02-0.235D+00-0.139D+00
 Coeff-Com:  0.147D+00 0.376D+00 0.126D+00-0.191D+00-0.112D+01 0.105D+00
 Coeff-Com:  0.633D+00 0.119D+01
 Coeff:     -0.591D-02 0.673D-01 0.567D-01-0.440D-02-0.235D+00-0.139D+00
 Coeff:      0.147D+00 0.376D+00 0.126D+00-0.191D+00-0.112D+01 0.105D+00
 Coeff:      0.633D+00 0.119D+01
 Gap=     0.120 Goal=   None    Shift=    0.000
 RMSDP=1.37D-06 MaxDP=2.91D-05 DE=-4.25D-09 OVMax= 1.49D-04

 Cycle  47  Pass 1  IDiag  1:
 RMSU=  8.19D-07    CP:  1.00D+00  1.56D+00  3.00D+00  3.00D+00  3.00D+00
                    CP:  3.00D+00  3.00D+00  3.00D+00  3.00D+00  3.00D+00
                    CP:  3.00D+00  3.00D+00  3.00D+00  2.14D+00
 E= -845.682644909301     Delta-E=       -0.000000004207 Rises=F Damp=F
 DIIS: error= 9.94D-07 at cycle  15 NSaved=  15.
 NSaved=15 IEnMin=15 EnMin= -845.682644909301     IErMin=15 ErrMin= 9.94D-07
 ErrMax= 9.94D-07  0.00D+00 EMaxC= 1.00D-01 BMatC= 5.14D-11 BMatP= 6.45D-11
 IDIUse=1 WtCom= 1.00D+00 WtEn= 0.00D+00
 Coeff-Com:  0.511D-03-0.412D-01-0.398D-01 0.505D-01 0.319D+00 0.486D-01
 Coeff-Com: -0.559D+00-0.239D+00 0.301D+00 0.126D+01-0.534D+00-0.143D+01
 Coeff-Com: -0.459D+00 0.136D+01 0.961D+00
 Coeff:      0.511D-03-0.412D-01-0.398D-01 0.505D-01 0.319D+00 0.486D-01
 Coeff:     -0.559D+00-0.239D+00 0.301D+00 0.126D+01-0.534D+00-0.143D+01
 Coeff:     -0.459D+00 0.136D+01 0.961D+00
 Gap=     0.120 Goal=   None    Shift=    0.000
 RMSDP=1.48D-06 MaxDP=3.30D-05 DE=-4.21D-09 OVMax= 1.55D-04

 Cycle  48  Pass 1  IDiag  1:
 RMSU=  3.36D-07    CP:  1.00D+00  1.58D+00  3.00D+00  3.00D+00  3.00D+00
                    CP:  3.00D+00  3.00D+00  3.00D+00  3.00D+00  3.00D+00
                    CP:  3.00D+00  3.00D+00  3.00D+00  3.00D+00  2.22D+00
 E= -845.682644912921     Delta-E=       -0.000000003620 Rises=F Damp=F
 DIIS: error= 7.31D-07 at cycle  16 NSaved=  16.
 NSaved=16 IEnMin=16 EnMin= -845.682644912921     IErMin=16 ErrMin= 7.31D-07
 ErrMax= 7.31D-07  0.00D+00 EMaxC= 1.00D-01 BMatC= 3.50D-11 BMatP= 5.14D-11
 IDIUse=1 WtCom= 1.00D+00 WtEn= 0.00D+00
 Coeff-Com:  0.629D-02-0.103D+00-0.897D-01 0.267D-01 0.544D+00 0.177D+00
 Coeff-Com: -0.686D+00-0.525D+00 0.862D-01 0.147D+01 0.356D+00-0.138D+01
 Coeff-Com: -0.101D+01 0.142D+00 0.941D+00 0.104D+01
 Coeff:      0.629D-02-0.103D+00-0.897D-01 0.267D-01 0.544D+00 0.177D+00
 Coeff:     -0.686D+00-0.525D+00 0.862D-01 0.147D+01 0.356D+00-0.138D+01
 Coeff:     -0.101D+01 0.142D+00 0.941D+00 0.104D+01
 Gap=     0.120 Goal=   None    Shift=    0.000
 RMSDP=1.87D-06 MaxDP=4.11D-05 DE=-3.62D-09 OVMax= 1.97D-04

 Cycle  49  Pass 1  IDiag  1:
 RMSU=  9.69D-07    CP:  1.00D+00  1.61D+00  3.00D+00  3.00D+00  3.00D+00
                    CP:  3.00D+00  3.00D+00  3.00D+00  3.00D+00  3.00D+00
                    CP:  3.00D+00  3.00D+00  3.00D+00  3.00D+00  3.00D+00
                    CP:  3.00D+00
 E= -845.682644915909     Delta-E=       -0.000000002989 Rises=F Damp=F
 DIIS: error= 4.03D-07 at cycle  17 NSaved=  17.
 NSaved=17 IEnMin=17 EnMin= -845.682644915909     IErMin=17 ErrMin= 4.03D-07
 ErrMax= 4.03D-07  0.00D+00 EMaxC= 1.00D-01 BMatC= 1.52D-11 BMatP= 3.50D-11
 IDIUse=1 WtCom= 1.00D+00 WtEn= 0.00D+00
 Coeff-Com:  0.359D-02-0.386D-01-0.302D-01-0.244D-01 0.160D+00 0.844D-01
 Coeff-Com: -0.122D+00-0.162D+00-0.180D+00 0.213D+00 0.481D+00 0.949D-01
 Coeff-Com: -0.323D+00-0.753D+00-0.102D+00 0.668D+00 0.103D+01
 Coeff:      0.359D-02-0.386D-01-0.302D-01-0.244D-01 0.160D+00 0.844D-01
 Coeff:     -0.122D+00-0.162D+00-0.180D+00 0.213D+00 0.481D+00 0.949D-01
 Coeff:     -0.323D+00-0.753D+00-0.102D+00 0.668D+00 0.103D+01
 Gap=     0.120 Goal=   None    Shift=    0.000
 RMSDP=1.34D-06 MaxDP=2.87D-05 DE=-2.99D-09 OVMax= 1.43D-04

 Cycle  50  Pass 1  IDiag  1:
 RMSU=  2.71D-07    CP:  1.00D+00  1.63D+00  3.00D+00  3.00D+00  3.00D+00
                    CP:  3.00D+00  3.00D+00  3.00D+00  3.00D+00  3.00D+00
                    CP:  3.00D+00  3.00D+00  3.00D+00  3.00D+00  3.00D+00
                    CP:  3.00D+00  2.35D+00
 E= -845.682644916965     Delta-E=       -0.000000001055 Rises=F Damp=F
 DIIS: error= 2.27D-07 at cycle  18 NSaved=  18.
 NSaved=18 IEnMin=18 EnMin= -845.682644916965     IErMin=18 ErrMin= 2.27D-07
 ErrMax= 2.27D-07  0.00D+00 EMaxC= 1.00D-01 BMatC= 6.40D-12 BMatP= 1.52D-11
 IDIUse=1 WtCom= 1.00D+00 WtEn= 0.00D+00
 Coeff-Com: -0.301D-03 0.175D-01 0.179D-01-0.332D-01-0.116D+00-0.160D-01
 Coeff-Com:  0.209D+00 0.123D+00-0.161D+00-0.425D+00 0.118D+00 0.619D+00
 Coeff-Com:  0.206D+00-0.530D+00-0.508D+00 0.663D-01 0.678D+00 0.733D+00
 Coeff:     -0.301D-03 0.175D-01 0.179D-01-0.332D-01-0.116D+00-0.160D-01
 Coeff:      0.209D+00 0.123D+00-0.161D+00-0.425D+00 0.118D+00 0.619D+00
 Coeff:      0.206D+00-0.530D+00-0.508D+00 0.663D-01 0.678D+00 0.733D+00
 Gap=     0.120 Goal=   None    Shift=    0.000
 RMSDP=4.48D-07 MaxDP=1.13D-05 DE=-1.06D-09 OVMax= 3.97D-05

 Cycle  51  Pass 1  IDiag  1:
 RMSU=  8.19D-08    CP:  1.00D+00  1.64D+00  3.00D+00  3.00D+00  3.00D+00
                    CP:  3.00D+00  3.00D+00  3.00D+00  3.00D+00  3.00D+00
                    CP:  3.00D+00  3.00D+00  3.00D+00  3.00D+00  3.00D+00
                    CP:  3.00D+00  2.78D+00  1.52D+00
 E= -845.682644917155     Delta-E=       -0.000000000190 Rises=F Damp=F
 DIIS: error= 1.25D-07 at cycle  19 NSaved=  19.
 NSaved=19 IEnMin=19 EnMin= -845.682644917155     IErMin=19 ErrMin= 1.25D-07
 ErrMax= 1.25D-07  0.00D+00 EMaxC= 1.00D-01 BMatC= 2.48D-12 BMatP= 6.40D-12
 IDIUse=1 WtCom= 1.00D+00 WtEn= 0.00D+00
 Coeff-Com: -0.122D-02 0.209D-01 0.195D-01-0.115D-01-0.109D+00-0.342D-01
 Coeff-Com:  0.141D+00 0.122D+00-0.420D-01-0.283D+00-0.110D+00 0.317D+00
 Coeff-Com:  0.242D+00-0.302D-01-0.290D+00-0.162D+00 0.687D-02 0.413D+00
 Coeff-Com:  0.790D+00
 Coeff:     -0.122D-02 0.209D-01 0.195D-01-0.115D-01-0.109D+00-0.342D-01
 Coeff:      0.141D+00 0.122D+00-0.420D-01-0.283D+00-0.110D+00 0.317D+00
 Coeff:      0.242D+00-0.302D-01-0.290D+00-0.162D+00 0.687D-02 0.413D+00
 Coeff:      0.790D+00
 Gap=     0.120 Goal=   None    Shift=    0.000
 RMSDP=1.82D-07 MaxDP=4.17D-06 DE=-1.90D-10 OVMax= 1.74D-05

 Cycle  52  Pass 1  IDiag  1:
 RMSU=  3.08D-08    CP:  1.00D+00  1.64D+00  3.00D+00  3.00D+00  3.00D+00
                    CP:  3.00D+00  3.00D+00  3.00D+00  3.00D+00  3.00D+00
                    CP:  3.00D+00  3.00D+00  3.00D+00  3.00D+00  3.00D+00
                    CP:  3.00D+00  2.95D+00  1.73D+00  1.23D+00
 E= -845.682644917194     Delta-E=       -0.000000000039 Rises=F Damp=F
 DIIS: error= 9.50D-08 at cycle  20 NSaved=  20.
 NSaved=20 IEnMin=20 EnMin= -845.682644917194     IErMin=20 ErrMin= 9.50D-08
 ErrMax= 9.50D-08  0.00D+00 EMaxC= 1.00D-01 BMatC= 9.14D-13 BMatP= 2.48D-12
 IDIUse=1 WtCom= 1.00D+00 WtEn= 0.00D+00
 Coeff-Com: -0.443D-03-0.473D-03-0.331D-03 0.127D-01 0.191D-01-0.687D-02
 Coeff-Com: -0.613D-01-0.122D-01 0.613D-01 0.140D+00-0.126D+00-0.245D+00
 Coeff-Com:  0.994D-02 0.294D+00 0.156D+00-0.721D-01-0.408D+00-0.291D+00
 Coeff-Com:  0.395D+00 0.114D+01
 Coeff:     -0.443D-03-0.473D-03-0.331D-03 0.127D-01 0.191D-01-0.687D-02
 Coeff:     -0.613D-01-0.122D-01 0.613D-01 0.140D+00-0.126D+00-0.245D+00
 Coeff:      0.994D-02 0.294D+00 0.156D+00-0.721D-01-0.408D+00-0.291D+00
 Coeff:      0.395D+00 0.114D+01
 Gap=     0.120 Goal=   None    Shift=    0.000
 RMSDP=1.49D-07 MaxDP=3.36D-06 DE=-3.87D-11 OVMax= 1.42D-05

 Cycle  53  Pass 1  IDiag  1:
 Restarting incremental Fock formation.
 E= -845.682644917213     Delta-E=       -0.000000000020 Rises=F Damp=F
 DIIS: error= 5.96D-08 at cycle  21 NSaved=  20.
 NSaved=20 IEnMin=20 EnMin= -845.682644917213     IErMin=20 ErrMin= 5.96D-08
 ErrMax= 5.96D-08  0.00D+00 EMaxC= 1.00D-01 BMatC= 2.58D-13 BMatP= 9.14D-13
 IDIUse=1 WtCom= 1.00D+00 WtEn= 0.00D+00
 Coeff-Com: -0.442D-02-0.415D-02 0.716D-02 0.281D-01 0.718D-02-0.510D-01
 Coeff-Com: -0.303D-01 0.198D-01 0.109D+00 0.152D-02-0.149D+00-0.467D-01
 Coeff-Com:  0.633D-01 0.113D+00 0.456D-01-0.985D-01-0.225D+00-0.861D-01
 Coeff-Com:  0.257D+00 0.104D+01
 Coeff:     -0.442D-02-0.415D-02 0.716D-02 0.281D-01 0.718D-02-0.510D-01
 Coeff:     -0.303D-01 0.198D-01 0.109D+00 0.152D-02-0.149D+00-0.467D-01
 Coeff:      0.633D-01 0.113D+00 0.456D-01-0.985D-01-0.225D+00-0.861D-01
 Coeff:      0.257D+00 0.104D+01
 Gap=     0.120 Goal=   None    Shift=    0.000
 RMSDP=3.89D-08 MaxDP=8.01D-07 DE=-1.96D-11 OVMax= 3.06D-06

 Cycle  54  Pass 1  IDiag  1:
 RMSU=  3.89D-08    CP:  1.00D+00
 E= -845.682644917225     Delta-E=       -0.000000000011 Rises=F Damp=F
 DIIS: error= 3.99D-08 at cycle  22 NSaved=  20.
 NSaved=20 IEnMin=20 EnMin= -845.682644917225     IErMin=20 ErrMin= 3.99D-08
 ErrMax= 3.99D-08  0.00D+00 EMaxC= 1.00D-01 BMatC= 1.14D-13 BMatP= 2.58D-13
 IDIUse=1 WtCom= 1.00D+00 WtEn= 0.00D+00
 Coeff-Com: -0.325D-03-0.190D-02-0.499D-02 0.411D-02 0.123D-01-0.370D-03
 Coeff-Com: -0.233D-01-0.263D-01 0.573D-01 0.619D-01-0.163D-01-0.124D+00
 Coeff-Com: -0.306D-01 0.573D-01 0.156D+00 0.193D-01-0.183D+00-0.426D+00
 Coeff-Com:  0.335D+00 0.113D+01
 Coeff:     -0.325D-03-0.190D-02-0.499D-02 0.411D-02 0.123D-01-0.370D-03
 Coeff:     -0.233D-01-0.263D-01 0.573D-01 0.619D-01-0.163D-01-0.124D+00
 Coeff:     -0.306D-01 0.573D-01 0.156D+00 0.193D-01-0.183D+00-0.426D+00
 Coeff:      0.335D+00 0.113D+01
 Gap=     0.120 Goal=   None    Shift=    0.000
 RMSDP=2.81D-08 MaxDP=4.80D-07 DE=-1.14D-11 OVMax= 2.29D-06

 Cycle  55  Pass 1  IDiag  1:
 RMSU=  7.20D-09    CP:  1.00D+00  1.70D+00
 E= -845.682644917224     Delta-E=        0.000000000001 Rises=F Damp=F
 DIIS: error= 2.58D-08 at cycle  23 NSaved=  20.
 NSaved=20 IEnMin=19 EnMin= -845.682644917225     IErMin=20 ErrMin= 2.58D-08
 ErrMax= 2.58D-08  0.00D+00 EMaxC= 1.00D-01 BMatC= 5.36D-14 BMatP= 1.14D-13
 IDIUse=1 WtCom= 1.00D+00 WtEn= 0.00D+00
 Coeff-Com: -0.109D-02-0.520D-02 0.882D-03 0.122D-01 0.329D-02-0.140D-01
 Coeff-Com: -0.258D-01 0.199D-01 0.476D-01-0.174D-02-0.531D-01-0.246D-01
 Coeff-Com:  0.130D-01 0.679D-01 0.307D-01 0.166D-02-0.145D+00-0.237D+00
 Coeff-Com:  0.263D+00 0.105D+01
 Coeff:     -0.109D-02-0.520D-02 0.882D-03 0.122D-01 0.329D-02-0.140D-01
 Coeff:     -0.258D-01 0.199D-01 0.476D-01-0.174D-02-0.531D-01-0.246D-01
 Coeff:      0.130D-01 0.679D-01 0.307D-01 0.166D-02-0.145D+00-0.237D+00
 Coeff:      0.263D+00 0.105D+01
 Gap=     0.120 Goal=   None    Shift=    0.000
 RMSDP=1.48D-08 MaxDP=2.32D-07 DE= 9.09D-13 OVMax= 1.41D-06

 Cycle  56  Pass 1  IDiag  1:
 RMSU=  6.38D-09    CP:  1.00D+00  2.03D+00  1.44D+00
 E= -845.682644917224     Delta-E=        0.000000000000 Rises=F Damp=F
 DIIS: error= 1.64D-08 at cycle  24 NSaved=  20.
 NSaved=20 IEnMin=18 EnMin= -845.682644917225     IErMin=20 ErrMin= 1.64D-08
 ErrMax= 1.64D-08  0.00D+00 EMaxC= 1.00D-01 BMatC= 2.48D-14 BMatP= 5.36D-14
 IDIUse=1 WtCom= 1.00D+00 WtEn= 0.00D+00
 Coeff-Com: -0.148D-02-0.133D-03 0.367D-02 0.210D-02-0.132D-02-0.688D-02
 Coeff-Com: -0.101D-01 0.146D-01 0.715D-02 0.101D-01-0.570D-02-0.192D-01
 Coeff-Com: -0.159D-01 0.735D-02 0.833D-01 0.700D-01-0.315D+00-0.314D+00
 Coeff-Com:  0.647D+00 0.844D+00
 Coeff:     -0.148D-02-0.133D-03 0.367D-02 0.210D-02-0.132D-02-0.688D-02
 Coeff:     -0.101D-01 0.146D-01 0.715D-02 0.101D-01-0.570D-02-0.192D-01
 Coeff:     -0.159D-01 0.735D-02 0.833D-01 0.700D-01-0.315D+00-0.314D+00
 Coeff:      0.647D+00 0.844D+00
 Gap=     0.120 Goal=   None    Shift=    0.000
 RMSDP=1.80D-08 MaxDP=2.95D-07 DE= 2.27D-13 OVMax= 2.01D-06

 Cycle  57  Pass 1  IDiag  1:
 RMSU=  1.04D-08    CP:  1.00D+00  1.96D+00  3.00D+00 -2.79D-01
 E= -845.682644917223     Delta-E=        0.000000000001 Rises=F Damp=F
 DIIS: error= 9.06D-09 at cycle  25 NSaved=  20.
 NSaved=20 IEnMin=17 EnMin= -845.682644917225     IErMin=20 ErrMin= 9.06D-09
 ErrMax= 9.06D-09  0.00D+00 EMaxC= 1.00D-01 BMatC= 8.89D-15 BMatP= 2.48D-14
 IDIUse=1 WtCom= 1.00D+00 WtEn= 0.00D+00
 Large coefficients: NSaved= 20 BigCof=    0.00 CofMax=   10.00 Det=-7.72D-15
 Inversion failed.  Reducing to 19 matrices.
 Large coefficients: NSaved= 19 BigCof=    0.00 CofMax=   10.00 Det=-7.73D-15
 Inversion failed.  Reducing to 18 matrices.
 Large coefficients: NSaved= 18 BigCof=    0.00 CofMax=   10.00 Det=-8.60D-15
 Inversion failed.  Reducing to 17 matrices.
 Large coefficients: NSaved= 17 BigCof=    0.00 CofMax=   10.00 Det=-8.93D-15
 Inversion failed.  Reducing to 16 matrices.
 Large coefficients: NSaved= 16 BigCof=    0.00 CofMax=   10.00 Det=-9.03D-15
 Inversion failed.  Reducing to 15 matrices.
 Coeff-Com: -0.961D-02 0.382D-02 0.328D-02 0.113D-01 0.325D-02-0.118D-01
 Coeff-Com: -0.194D-01-0.443D-02 0.324D-01 0.703D-01-0.446D-01-0.196D+00
 Coeff-Com: -0.681D-01 0.207D+00 0.102D+01
 Coeff:     -0.961D-02 0.382D-02 0.328D-02 0.113D-01 0.325D-02-0.118D-01
 Coeff:     -0.194D-01-0.443D-02 0.324D-01 0.703D-01-0.446D-01-0.196D+00
 Coeff:     -0.681D-01 0.207D+00 0.102D+01
 Gap=     0.120 Goal=   None    Shift=    0.000
 RMSDP=1.30D-08 MaxDP=2.22D-07 DE= 9.09D-13 OVMax= 1.44D-06

 Cycle  58  Pass 1  IDiag  1:
 RMSU=  2.84D-09    CP:  1.00D+00  2.21D+00  2.91D+00  9.05D-01  6.95D-01
 E= -845.682644917219     Delta-E=        0.000000000004 Rises=F Damp=F
 DIIS: error= 7.59D-09 at cycle  26 NSaved=  16.
 NSaved=16 IEnMin=12 EnMin= -845.682644917225     IErMin=16 ErrMin= 7.59D-09
 ErrMax= 7.59D-09  0.00D+00 EMaxC= 1.00D-01 BMatC= 4.49D-15 BMatP= 8.89D-15
 IDIUse=1 WtCom= 1.00D+00 WtEn= 0.00D+00
 Large coefficients: NSaved= 16 BigCof=    0.00 CofMax=   10.00 Det=-3.60D-15
 Inversion failed.  Reducing to 15 matrices.
 Coeff-Com:  0.475D-02-0.285D-02-0.722D-02 0.169D-02 0.277D-02 0.984D-02
 Coeff-Com: -0.133D-02-0.312D-01-0.254D-01 0.120D+00 0.956D-01-0.328D+00
 Coeff-Com: -0.308D+00 0.412D+00 0.106D+01
 Coeff:      0.475D-02-0.285D-02-0.722D-02 0.169D-02 0.277D-02 0.984D-02
 Coeff:     -0.133D-02-0.312D-01-0.254D-01 0.120D+00 0.956D-01-0.328D+00
 Coeff:     -0.308D+00 0.412D+00 0.106D+01
 Gap=     0.120 Goal=   None    Shift=    0.000
 RMSDP=7.77D-09 MaxDP=1.24D-07 DE= 3.87D-12 OVMax= 8.04D-07

 SCF Done:  E(RwB97XD) =  -845.682644917     A.U. after   58 cycles
            NFock= 58  Conv=0.78D-08     -V/T= 2.0053
 KE= 8.412269182402D+02 PE=-4.007163209600D+03 EE= 1.278620797934D+03
 Leave Link  502 at Wed Jan  5 16:39:55 2022, MaxMem=   402653184 cpu:            3274.5 elap:             545.8
 (Enter /work/01114/jfonner/frontera/gaussian/16rC.01/g16/l601.exe)
 Copying SCF densities to generalized density rwf, IOpCl= 0 IROHF=0.

 **********************************************************************

            Population analysis using the SCF Density.

 **********************************************************************

 Orbital symmetries:
       Occupied  (A) (A) (A) (A) (A) (A) (A) (A) (A) (A) (A) (A)
                 (A) (A) (A) (A) (A) (A) (A) (A) (A) (A) (A) (A)
                 (A) (A) (A) (A) (A) (A) (A) (A) (A) (A) (A) (A)
                 (A) (A) (A) (A) (A) (A) (A) (A) (A) (A) (A) (A)
                 (A) (A) (A) (A) (A) (A) (A) (A) (A)
       Virtual   (A) (A) (A) (A) (A) (A) (A) (A) (A) (A) (A) (A)
                 (A) (A) (A) (A) (A) (A) (A) (A) (A) (A) (A) (A)
                 (A) (A) (A) (A) (A) (A) (A) (A) (A) (A) (A) (A)
                 (A) (A) (A) (A) (A) (A) (A) (A) (A) (A) (A) (A)
                 (A) (A) (A) (A) (A) (A) (A) (A) (A) (A) (A) (A)
                 (A) (A) (A) (A) (A) (A) (A) (A) (A) (A) (A) (A)
                 (A) (A) (A) (A) (A) (A) (A) (A) (A) (A) (A) (A)
                 (A) (A) (A) (A) (A) (A) (A) (A) (A) (A) (A) (A)
                 (A) (A) (A) (A) (A) (A) (A) (A)
 The electronic state is 1-A.
 Alpha  occ. eigenvalues --  -19.84339 -19.81420 -19.77257 -19.75834 -15.05947
 Alpha  occ. eigenvalues --  -14.98625 -14.96989 -11.01427 -10.96753 -10.94018
 Alpha  occ. eigenvalues --  -10.93123 -10.92931 -10.91817 -10.90018 -10.89161
 Alpha  occ. eigenvalues --  -10.85275 -10.84412  -1.70183  -1.69150  -1.68106
 Alpha  occ. eigenvalues --   -1.61843  -1.55549  -1.52272  -1.48679  -1.42106
 Alpha  occ. eigenvalues --   -1.39216  -1.33195  -1.30332  -1.26498  -1.19096
 Alpha  occ. eigenvalues --   -1.14996  -1.14626  -1.10851  -1.07994  -1.04308
 Alpha  occ. eigenvalues --   -1.04095  -1.03879  -1.02765  -1.02462  -1.01142
 Alpha  occ. eigenvalues --   -1.00200  -0.99594  -0.97947  -0.97069  -0.95018
 Alpha  occ. eigenvalues --   -0.94748  -0.93068  -0.91446  -0.88818  -0.88063
 Alpha  occ. eigenvalues --   -0.86782  -0.85856  -0.85029  -0.83012  -0.81855
 Alpha  occ. eigenvalues --   -0.80299  -0.77753
 Alpha virt. eigenvalues --   -0.65720  -0.62363  -0.57324  -0.56939  -0.55900
 Alpha virt. eigenvalues --   -0.53384  -0.50466  -0.47586  -0.45181  -0.40469
 Alpha virt. eigenvalues --   -0.37497  -0.36316  -0.23822  -0.23025  -0.21190
 Alpha virt. eigenvalues --   -0.19015  -0.18326  -0.16757  -0.15941  -0.15472
 Alpha virt. eigenvalues --   -0.15108  -0.14489  -0.13710  -0.13665  -0.12697
 Alpha virt. eigenvalues --   -0.11279  -0.08294  -0.06774  -0.04464  -0.01144
 Alpha virt. eigenvalues --    0.02217   0.04244   0.10656   0.11810   0.12478
 Alpha virt. eigenvalues --    0.13807   0.14697   0.15270   0.15686   0.18112
 Alpha virt. eigenvalues --    0.18414   0.19748   0.20047   0.20567   0.21257
 Alpha virt. eigenvalues --    0.21565   0.21796   0.22677   0.23145   0.24849
 Alpha virt. eigenvalues --    0.26012   0.26534   0.28166   0.29492   0.30096
 Alpha virt. eigenvalues --    0.31369   0.33167   0.33791   0.34834   0.35858
 Alpha virt. eigenvalues --    0.38641   0.39677   0.41903   0.44063   0.45931
 Alpha virt. eigenvalues --    0.47763   0.48433   0.49931   0.52276   0.54626
 Alpha virt. eigenvalues --    0.56445   0.57393   0.58181   0.59084   0.59366
 Alpha virt. eigenvalues --    0.60289   0.60891   0.62246   0.63021   0.63793
 Alpha virt. eigenvalues --    0.64856   0.65918   0.68298   0.70698   0.71882
 Alpha virt. eigenvalues --    0.74066   0.75949   0.79021   0.79712   0.81906
 Alpha virt. eigenvalues --    0.83852   0.85406   0.87264   0.90658   0.97070
 Alpha virt. eigenvalues --    1.02215   1.10010   1.13634   1.23529   1.27218
 Alpha virt. eigenvalues --    1.37694   1.38437   1.59102   1.61147
          Condensed to atoms (all electrons):
               1          2          3          4          5          6
     1  C    4.895383   0.348597   0.083121  -0.025121   0.002251   0.000887
     2  O    0.348597   7.847337  -0.072818   0.005136  -0.001390   0.000008
     3  N    0.083121  -0.072818   7.147684   0.171946  -0.083962   0.001687
     4  C   -0.025121   0.005136   0.171946   5.493240   0.137126  -0.120333
     5  C    0.002251  -0.001390  -0.083962   0.137126   5.108316   0.428354
     6  O    0.000887   0.000008   0.001687  -0.120333   0.428354   8.013755
     7  N    0.000993   0.000010  -0.002293  -0.163010   0.152685  -0.132041
     8  C   -0.000053   0.000000  -0.000641   0.008256  -0.058630  -0.008362
     9  C    0.002870   0.000511  -0.062899   0.332803  -0.084492   0.001648
    10  C   -0.000049   0.000003   0.002276   0.000496  -0.001454  -0.001688
    11  C    0.000001   0.000000  -0.000006  -0.000403   0.005762  -0.000645
    12  O   -0.000000   0.000000  -0.000000   0.000008   0.000551  -0.000012
    13  N    0.000000   0.000000  -0.000000   0.000000   0.000443   0.000010
    14  C    0.000000  -0.000000  -0.000000  -0.000000  -0.000006   0.000000
    15  C    0.000007   0.000001   0.000053  -0.000329   0.002498   0.000715
    16  O    0.000064  -0.000004   0.000037  -0.000265   0.003741  -0.000088
    17  C   -0.000000  -0.000000   0.000000  -0.000002  -0.000060  -0.000008
    18  H    0.374155  -0.044749  -0.080923   0.005639  -0.000133   0.000025
    19  H    0.000269   0.000032  -0.005086  -0.021698   0.002847  -0.000036
    20  H    0.000000   0.000000  -0.000000  -0.000000   0.000000   0.000000
    21  H   -0.000000  -0.000000   0.000000   0.000000  -0.000000  -0.000000
               7          8          9         10         11         12
     1  C    0.000993  -0.000053   0.002870  -0.000049   0.000001  -0.000000
     2  O    0.000010   0.000000   0.000511   0.000003   0.000000   0.000000
     3  N   -0.002293  -0.000641  -0.062899   0.002276  -0.000006  -0.000000
     4  C   -0.163010   0.008256   0.332803   0.000496  -0.000403   0.000008
     5  C    0.152685  -0.058630  -0.084492  -0.001454   0.005762   0.000551
     6  O   -0.132041  -0.008362   0.001648  -0.001688  -0.000645  -0.000012
     7  N    7.309793   0.256698  -0.002212   0.001273  -0.080802  -0.004842
     8  C    0.256698   5.697440  -0.000487  -0.000053   0.078988  -0.107530
     9  C   -0.002212  -0.000487   5.538866   0.117461   0.000037   0.000001
    10  C    0.001273  -0.000053   0.117461   5.353577   0.000010   0.000005
    11  C   -0.080802   0.078988   0.000037   0.000010   5.062753   0.474963
    12  O   -0.004842  -0.107530   0.000001   0.000005   0.474963   7.937671
    13  N   -0.000537  -0.170865  -0.000000  -0.000005   0.151018  -0.146850
    14  C   -0.000117   0.004415   0.000000   0.000000  -0.045203  -0.006228
    15  C   -0.070399   0.161541  -0.000007   0.000001  -0.049866   0.007419
    16  O    0.001627  -0.062004   0.000001  -0.000000   0.003033  -0.000013
    17  C    0.003893  -0.030080   0.000000   0.000000   0.010963  -0.000903
    18  H    0.000005  -0.000001  -0.000008  -0.000000   0.000000   0.000000
    19  H   -0.000079   0.000004   0.335927  -0.015131  -0.000000   0.000000
    20  H   -0.000003  -0.000133  -0.000000  -0.000000   0.002962   0.000246
    21  H    0.000016  -0.000151  -0.000000   0.000000  -0.001449   0.000069
              13         14         15         16         17         18
     1  C    0.000000   0.000000   0.000007   0.000064  -0.000000   0.374155
     2  O    0.000000  -0.000000   0.000001  -0.000004  -0.000000  -0.044749
     3  N   -0.000000  -0.000000   0.000053   0.000037   0.000000  -0.080923
     4  C    0.000000  -0.000000  -0.000329  -0.000265  -0.000002   0.005639
     5  C    0.000443  -0.000006   0.002498   0.003741  -0.000060  -0.000133
     6  O    0.000010   0.000000   0.000715  -0.000088  -0.000008   0.000025
     7  N   -0.000537  -0.000117  -0.070399   0.001627   0.003893   0.000005
     8  C   -0.170865   0.004415   0.161541  -0.062004  -0.030080  -0.000001
     9  C   -0.000000   0.000000  -0.000007   0.000001   0.000000  -0.000008
    10  C   -0.000005   0.000000   0.000001  -0.000000   0.000000  -0.000000
    11  C    0.151018  -0.045203  -0.049866   0.003033   0.010963   0.000000
    12  O   -0.146850  -0.006228   0.007419  -0.000013  -0.000903   0.000000
    13  N    7.254061   0.282612  -0.000103  -0.000006   0.010204   0.000000
    14  C    0.282612   4.984295  -0.000123   0.000000  -0.000216  -0.000000
    15  C   -0.000103  -0.000123   5.600838   0.207590  -0.061735   0.000000
    16  O   -0.000006   0.000000   0.207590   7.989062  -0.004743   0.000001
    17  C    0.010204  -0.000216  -0.061735  -0.004743   5.420139  -0.000000
    18  H    0.000000  -0.000000   0.000000   0.000001  -0.000000   0.374149
    19  H   -0.000000  -0.000000   0.000000   0.000000   0.000000  -0.000012
    20  H   -0.037051   0.351446   0.000018   0.000000  -0.000072   0.000000
    21  H   -0.035143   0.349517  -0.000004  -0.000000   0.000011  -0.000000
              19         20         21
     1  C    0.000269   0.000000  -0.000000
     2  O    0.000032   0.000000  -0.000000
     3  N   -0.005086  -0.000000   0.000000
     4  C   -0.021698  -0.000000   0.000000
     5  C    0.002847   0.000000  -0.000000
     6  O   -0.000036   0.000000  -0.000000
     7  N   -0.000079  -0.000003   0.000016
     8  C    0.000004  -0.000133  -0.000151
     9  C    0.335927  -0.000000  -0.000000
    10  C   -0.015131  -0.000000   0.000000
    11  C   -0.000000   0.002962  -0.001449
    12  O    0.000000   0.000246   0.000069
    13  N   -0.000000  -0.037051  -0.035143
    14  C   -0.000000   0.351446   0.349517
    15  C    0.000000   0.000018  -0.000004
    16  O    0.000000   0.000000  -0.000000
    17  C    0.000000  -0.000072   0.000011
    18  H   -0.000012   0.000000  -0.000000
    19  H    0.331868  -0.000000   0.000000
    20  H   -0.000000   0.361478  -0.026640
    21  H    0.000000  -0.026640   0.364287
 Mulliken charges:
               1
     1  C    0.316626
     2  O   -0.082675
     3  N   -0.098177
     4  C    0.176512
     5  C    0.385552
     6  O   -0.183876
     7  N   -0.270660
     8  C    0.231649
     9  C   -0.180020
    10  C    0.543278
    11  C    0.387885
    12  O   -0.154555
    13  N   -0.307789
    14  C    0.079608
    15  C    0.201885
    16  O   -0.138033
    17  C    0.652610
    18  H    0.371851
    19  H    0.371095
    20  H    0.347749
    21  H    0.349486
 Sum of Mulliken charges =   3.00000
 Mulliken charges with hydrogens summed into heavy atoms:
               1
     1  C    0.688477
     2  O   -0.082675
     3  N   -0.098177
     4  C    0.176512
     5  C    0.385552
     6  O   -0.183876
     7  N   -0.270660
     8  C    0.231649
     9  C    0.191075
    10  C    0.543278
    11  C    0.387885
    12  O   -0.154555
    13  N   -0.307789
    14  C    0.776843
    15  C    0.201885
    16  O   -0.138033
    17  C    0.652610
 Electronic spatial extent (au):  <R**2>=           4092.2916
 Charge=              3.0000 electrons
 Dipole moment (field-independent basis, Debye):
    X=              2.7593    Y=             -3.2371    Z=             -0.2754  Tot=              4.2624
 Quadrupole moment (field-independent basis, Debye-Ang):
   XX=             78.7680   YY=            -25.3579   ZZ=            -93.4197
   XY=              6.7626   XZ=             -3.1067   YZ=             -1.5281
 Traceless Quadrupole moment (field-independent basis, Debye-Ang):
   XX=             92.1045   YY=            -12.0214   ZZ=            -80.0831
   XY=              6.7626   XZ=             -3.1067   YZ=             -1.5281
 Octapole moment (field-independent basis, Debye-Ang**2):
  XXX=            139.1664  YYY=            -33.8681  ZZZ=              2.2801  XYY=              5.4598
  XXY=            -73.7957  XXZ=             -9.5316  XZZ=             -0.7814  YZZ=              6.3264
  YYZ=              1.9196  XYZ=             13.0690
 Hexadecapole moment (field-independent basis, Debye-Ang**3):
 XXXX=           -430.7812 YYYY=           -874.8829 ZZZZ=           -374.3819 XXXY=           -596.3878
 XXXZ=            -33.6933 YYYX=            163.0863 YYYZ=              0.5891 ZZZX=            -14.0446
 ZZZY=             -3.5462 XXYY=           -264.7880 XXZZ=           -651.1539 YYZZ=           -275.0191
 XXYZ=            -13.3197 YYXZ=            -15.0607 ZZXY=            -12.3524
 N-N= 1.041632848509D+03 E-N=-4.007163209378D+03  KE= 8.412269182402D+02
 No NMR shielding tensors so no spin-rotation constants.
 Leave Link  601 at Wed Jan  5 16:40:00 2022, MaxMem=   402653184 cpu:              41.6 elap:               4.6
 (Enter /work/01114/jfonner/frontera/gaussian/16rC.01/g16/l9999.exe)
 Unable to Open any file for archive entry.
 1\1\GINC-C202-005\SP\RwB97XD\6-31G\C10H4N3O4(3+)\SA748948\05-Jan-2022\
 0\\#p int=acc2e=12 wb97xd/6-31g\\Atom number=21\\3,1\C,0,4.271,0.817,1
 1.296\O,0,4.359,2.033,11.367\N,0,3.492,0.104,12.073\C,0,2.585,0.677,13
 .085\C,0,3.006,0.047,14.361\O,0,2.958,-1.169,14.515\N,0,3.481,0.887,15
 .262\C,0,4.163,0.392,16.442\C,0,1.127,0.33,12.827\C,0,0.248,0.675,14.0
 38\C,0,3.424,0.965,17.631\O,0,3.136,2.11,17.612\N,0,3.173,0.129,18.647
 \C,0,2.559,0.516,19.903\C,0,5.688,0.75,16.389\O,0,6.264,0.13,15.236\C,
 0,6.42,0.21,17.569\H,0,4.84396452,0.24331567,10.59778947\H,0,0.8027527
 1,0.84321259,11.94587769\H,0,3.12112137,0.06260754,20.69252824\H,0,1.5
 5947137,0.13827525,19.95927184\\Version=ES64L-G16RevC.01\State=1-A\HF=
 -845.6826449\RMSD=7.771e-09\Dipole=-1.1808483,-0.1537006,1.1807402\Qua
 drupole=-7.6184152,-59.4473227,67.0657379,-0.538389,11.1368095,-4.4366
 526\PG=C01 [X(C10H4N3O4)]\\@
 The archive entry for this job was punched.


 BREAD HAS TO MOLD IN ORDER TO GET PENICILLIN.
          -- JERRY BOATZ
 Job cpu time:       0 days  0 hours 58 minutes 12.3 seconds.
 Elapsed time:       0 days  0 hours  9 minutes 38.8 seconds.
 File lengths (MBytes):  RWF=     20 Int=      0 D2E=      0 Chk=      3 Scr=      1
 Normal termination of Gaussian 16 at Wed Jan  5 16:40:01 2022.
