Atom number=12                                                          
SP        RwB97XD                                                     6-31G               
Number of atoms                            I               12
Info1-9                                    I   N=           9
          80          21           0           0           0         110
           1          18       -5802
Full Title                                 C   N=           2
Atom number=12          
Route                                      C   N=           3
#p int=acc2e=12 wb97xd/6-31g        
Charge                                     I                1
Multiplicity                               I                1
Number of electrons                        I               62
Number of alpha electrons                  I               31
Number of beta electrons                   I               31
Number of basis functions                  I               87
Number of independent functions            I               87
Number of point charges in /Mol/           I                0
Number of translation vectors              I                0
Atomic numbers                             I   N=          12
           6           8           7           6           6           8
           7           6           6           1           1           1
Nuclear charges                            R   N=          12
  6.00000000E+00  8.00000000E+00  7.00000000E+00  6.00000000E+00  6.00000000E+00
  8.00000000E+00  7.00000000E+00  6.00000000E+00  6.00000000E+00  1.00000000E+00
  1.00000000E+00  1.00000000E+00
Current cartesian coordinates              R   N=          36
 -4.52048325E+00 -1.00568616E+00  9.57927367E-01 -5.05428859E+00 -1.82104443E+00
 -1.05834743E+00 -2.39579572E+00  2.07373664E-01  1.38384639E+00 -6.59413180E-01
  7.90938465E-01 -6.50880692E-01  2.03450182E+00  3.48612637E-01  1.41336131E-01
  2.98738973E+00  1.58615659E+00  1.86158643E+00  3.27273003E+00 -1.40609728E+00
 -1.12841637E+00  5.86815059E+00 -2.00290707E+00 -5.30487264E-01 -1.05578251E+00
  3.59211763E+00 -1.40207234E+00 -5.76275415E+00 -1.31607036E+00  2.52283528E+00
 -5.94690557E-02  4.19343369E+00 -3.05564139E+00  6.21703313E+00 -2.94564843E+00
  1.22394478E+00
Number of symbols in /Mol/                 I                0
Int Atom Types                             I   N=          12
           0           0           0           0           0           0
           0           0           0           0           0           0
Force Field                                I                0
Atom Types                                 C   N=          12
                                                            
                                                            
                        
MM charges                                 R   N=          12
  0.00000000E+00  0.00000000E+00  0.00000000E+00  0.00000000E+00  0.00000000E+00
  0.00000000E+00  0.00000000E+00  0.00000000E+00  0.00000000E+00  0.00000000E+00
  0.00000000E+00  0.00000000E+00
Integer atomic weights                     I   N=          12
          12          16          14          12          12          16
          14          12          12           1           1           1
Real atomic weights                        R   N=          12
  1.20000000E+01  1.59949146E+01  1.40030740E+01  1.20000000E+01  1.20000000E+01
  1.59949146E+01  1.40030740E+01  1.20000000E+01  1.20000000E+01  1.00782504E+00
  1.00782504E+00  1.00782504E+00
Atom fragment info                         I   N=          12
           0           0           0           0           0           0
           0           0           0           0           0           0
Atom residue num                           I   N=          12
           0           0           0           0           0           0
           0           0           0           0           0           0
Nuclear spins                              I   N=          12
           0           0           2           0           0           0
           2           0           0           1           1           1
Nuclear ZEff                               R   N=          12
 -3.60000000E+00 -5.60000000E+00 -4.55000000E+00 -3.60000000E+00 -3.60000000E+00
 -5.60000000E+00 -4.55000000E+00 -3.60000000E+00 -3.60000000E+00 -1.00000000E+00
 -1.00000000E+00 -1.00000000E+00
Nuclear ZNuc                               R   N=          12
  6.00000000E+00  8.00000000E+00  7.00000000E+00  6.00000000E+00  6.00000000E+00
  8.00000000E+00  7.00000000E+00  6.00000000E+00  6.00000000E+00  1.00000000E+00
  1.00000000E+00  1.00000000E+00
Nuclear QMom                               R   N=          12
  0.00000000E+00  0.00000000E+00  2.04400000E+00  0.00000000E+00  0.00000000E+00
  0.00000000E+00  2.04400000E+00  0.00000000E+00  0.00000000E+00  0.00000000E+00
  0.00000000E+00  0.00000000E+00
Nuclear GFac                               R   N=          12
  0.00000000E+00  0.00000000E+00  4.03761000E-01  0.00000000E+00  0.00000000E+00
  0.00000000E+00  4.03761000E-01  0.00000000E+00  0.00000000E+00  2.79284600E+00
  2.79284600E+00  2.79284600E+00
MicOpt                                     I   N=          12
          -1          -1          -1          -1          -1          -1
          -1          -1          -1          -1          -1          -1
Number of residues                         I                0
Number of secondary structures             I                0
SymInf integers                            I   N=          26
           1           1           1           1           1           0
           0           0           0           0           0           0
           0           0           0           0           0           0
           0           0           0           0           0           0
           0           0
RotTr to input orientation                 R   N=          12
  7.31937840E-01  3.22016848E-01  6.00476600E-01  4.18012793E-01  4.83733739E-01
 -7.68938863E-01 -5.38082060E-01  8.13822351E-01  2.19455866E-01  5.83191590E+00
 -4.51252719E-01  1.45659303E+01
Number of contracted shells                I               33
Number of primitive shells                 I              102
Pure/Cartesian d shells                    I                1
Pure/Cartesian f shells                    I                0
Highest angular momentum                   I                1
Largest degree of contraction              I                6
Shell types                                I   N=          33
           0          -1          -1           0          -1          -1
           0          -1          -1           0          -1          -1
           0          -1          -1           0          -1          -1
           0          -1          -1           0          -1          -1
           0          -1          -1           0           0           0
           0           0           0
Number of primitives per shell             I   N=          33
           6           3           1           6           3           1
           6           3           1           6           3           1
           6           3           1           6           3           1
           6           3           1           6           3           1
           6           3           1           3           1           3
           1           3           1
Shell to atom map                          I   N=          33
           1           1           1           2           2           2
           3           3           3           4           4           4
           5           5           5           6           6           6
           7           7           7           8           8           8
           9           9           9          10          10          11
          11          12          12
Primitive exponents                        R   N=         102
  3.04752488E+03  4.57369518E+02  1.03948685E+02  2.92101553E+01  9.28666296E+00
  3.16392696E+00  7.86827235E+00  1.88128854E+00  5.44249258E-01  1.68714478E-01
  5.48467166E+03  8.25234946E+02  1.88046958E+02  5.29645000E+01  1.68975704E+01
  5.79963534E+00  1.55396162E+01  3.59993359E+00  1.01376175E+00  2.70005823E-01
  4.17351146E+03  6.27457911E+02  1.42902093E+02  4.02343293E+01  1.28202129E+01
  4.39043701E+00  1.16263619E+01  2.71627981E+00  7.72218397E-01  2.12031498E-01
  3.04752488E+03  4.57369518E+02  1.03948685E+02  2.92101553E+01  9.28666296E+00
  3.16392696E+00  7.86827235E+00  1.88128854E+00  5.44249258E-01  1.68714478E-01
  3.04752488E+03  4.57369518E+02  1.03948685E+02  2.92101553E+01  9.28666296E+00
  3.16392696E+00  7.86827235E+00  1.88128854E+00  5.44249258E-01  1.68714478E-01
  5.48467166E+03  8.25234946E+02  1.88046958E+02  5.29645000E+01  1.68975704E+01
  5.79963534E+00  1.55396162E+01  3.59993359E+00  1.01376175E+00  2.70005823E-01
  4.17351146E+03  6.27457911E+02  1.42902093E+02  4.02343293E+01  1.28202129E+01
  4.39043701E+00  1.16263619E+01  2.71627981E+00  7.72218397E-01  2.12031498E-01
  3.04752488E+03  4.57369518E+02  1.03948685E+02  2.92101553E+01  9.28666296E+00
  3.16392696E+00  7.86827235E+00  1.88128854E+00  5.44249258E-01  1.68714478E-01
  3.04752488E+03  4.57369518E+02  1.03948685E+02  2.92101553E+01  9.28666296E+00
  3.16392696E+00  7.86827235E+00  1.88128854E+00  5.44249258E-01  1.68714478E-01
  1.87311370E+01  2.82539436E+00  6.40121692E-01  1.61277759E-01  1.87311370E+01
  2.82539436E+00  6.40121692E-01  1.61277759E-01  1.87311370E+01  2.82539436E+00
  6.40121692E-01  1.61277759E-01
Contraction coefficients                   R   N=         102
  1.83473713E-03  1.40373228E-02  6.88426223E-02  2.32184443E-01  4.67941348E-01
  3.62311985E-01 -1.19332420E-01 -1.60854152E-01  1.14345644E+00  1.00000000E+00
  1.83107443E-03  1.39501722E-02  6.84450781E-02  2.32714336E-01  4.70192898E-01
  3.58520853E-01 -1.10777550E-01 -1.48026263E-01  1.13076702E+00  1.00000000E+00
  1.83477216E-03  1.39946270E-02  6.85865518E-02  2.32240873E-01  4.69069948E-01
  3.60455199E-01 -1.14961182E-01 -1.69117479E-01  1.14585195E+00  1.00000000E+00
  1.83473713E-03  1.40373228E-02  6.88426223E-02  2.32184443E-01  4.67941348E-01
  3.62311985E-01 -1.19332420E-01 -1.60854152E-01  1.14345644E+00  1.00000000E+00
  1.83473713E-03  1.40373228E-02  6.88426223E-02  2.32184443E-01  4.67941348E-01
  3.62311985E-01 -1.19332420E-01 -1.60854152E-01  1.14345644E+00  1.00000000E+00
  1.83107443E-03  1.39501722E-02  6.84450781E-02  2.32714336E-01  4.70192898E-01
  3.58520853E-01 -1.10777550E-01 -1.48026263E-01  1.13076702E+00  1.00000000E+00
  1.83477216E-03  1.39946270E-02  6.85865518E-02  2.32240873E-01  4.69069948E-01
  3.60455199E-01 -1.14961182E-01 -1.69117479E-01  1.14585195E+00  1.00000000E+00
  1.83473713E-03  1.40373228E-02  6.88426223E-02  2.32184443E-01  4.67941348E-01
  3.62311985E-01 -1.19332420E-01 -1.60854152E-01  1.14345644E+00  1.00000000E+00
  1.83473713E-03  1.40373228E-02  6.88426223E-02  2.32184443E-01  4.67941348E-01
  3.62311985E-01 -1.19332420E-01 -1.60854152E-01  1.14345644E+00  1.00000000E+00
  3.34946043E-02  2.34726953E-01  8.13757326E-01  1.00000000E+00  3.34946043E-02
  2.34726953E-01  8.13757326E-01  1.00000000E+00  3.34946043E-02  2.34726953E-01
  8.13757326E-01  1.00000000E+00
P(S=P) Contraction coefficients            R   N=         102
  0.00000000E+00  0.00000000E+00  0.00000000E+00  0.00000000E+00  0.00000000E+00
  0.00000000E+00  6.89990666E-02  3.16423961E-01  7.44308291E-01  1.00000000E+00
  0.00000000E+00  0.00000000E+00  0.00000000E+00  0.00000000E+00  0.00000000E+00
  0.00000000E+00  7.08742682E-02  3.39752839E-01  7.27158577E-01  1.00000000E+00
  0.00000000E+00  0.00000000E+00  0.00000000E+00  0.00000000E+00  0.00000000E+00
  0.00000000E+00  6.75797439E-02  3.23907296E-01  7.40895140E-01  1.00000000E+00
  0.00000000E+00  0.00000000E+00  0.00000000E+00  0.00000000E+00  0.00000000E+00
  0.00000000E+00  6.89990666E-02  3.16423961E-01  7.44308291E-01  1.00000000E+00
  0.00000000E+00  0.00000000E+00  0.00000000E+00  0.00000000E+00  0.00000000E+00
  0.00000000E+00  6.89990666E-02  3.16423961E-01  7.44308291E-01  1.00000000E+00
  0.00000000E+00  0.00000000E+00  0.00000000E+00  0.00000000E+00  0.00000000E+00
  0.00000000E+00  7.08742682E-02  3.39752839E-01  7.27158577E-01  1.00000000E+00
  0.00000000E+00  0.00000000E+00  0.00000000E+00  0.00000000E+00  0.00000000E+00
  0.00000000E+00  6.75797439E-02  3.23907296E-01  7.40895140E-01  1.00000000E+00
  0.00000000E+00  0.00000000E+00  0.00000000E+00  0.00000000E+00  0.00000000E+00
  0.00000000E+00  6.89990666E-02  3.16423961E-01  7.44308291E-01  1.00000000E+00
  0.00000000E+00  0.00000000E+00  0.00000000E+00  0.00000000E+00  0.00000000E+00
  0.00000000E+00  6.89990666E-02  3.16423961E-01  7.44308291E-01  1.00000000E+00
  0.00000000E+00  0.00000000E+00  0.00000000E+00  0.00000000E+00  0.00000000E+00
  0.00000000E+00  0.00000000E+00  0.00000000E+00  0.00000000E+00  0.00000000E+00
  0.00000000E+00  0.00000000E+00
Coordinates of each shell                  R   N=          99
 -4.52048325E+00 -1.00568616E+00  9.57927367E-01 -4.52048325E+00 -1.00568616E+00
  9.57927367E-01 -4.52048325E+00 -1.00568616E+00  9.57927367E-01 -5.05428859E+00
 -1.82104443E+00 -1.05834743E+00 -5.05428859E+00 -1.82104443E+00 -1.05834743E+00
 -5.05428859E+00 -1.82104443E+00 -1.05834743E+00 -2.39579572E+00  2.07373664E-01
  1.38384639E+00 -2.39579572E+00  2.07373664E-01  1.38384639E+00 -2.39579572E+00
  2.07373664E-01  1.38384639E+00 -6.59413180E-01  7.90938465E-01 -6.50880692E-01
 -6.59413180E-01  7.90938465E-01 -6.50880692E-01 -6.59413180E-01  7.90938465E-01
 -6.50880692E-01  2.03450182E+00  3.48612637E-01  1.41336131E-01  2.03450182E+00
  3.48612637E-01  1.41336131E-01  2.03450182E+00  3.48612637E-01  1.41336131E-01
  2.98738973E+00  1.58615659E+00  1.86158643E+00  2.98738973E+00  1.58615659E+00
  1.86158643E+00  2.98738973E+00  1.58615659E+00  1.86158643E+00  3.27273003E+00
 -1.40609728E+00 -1.12841637E+00  3.27273003E+00 -1.40609728E+00 -1.12841637E+00
  3.27273003E+00 -1.40609728E+00 -1.12841637E+00  5.86815059E+00 -2.00290707E+00
 -5.30487264E-01  5.86815059E+00 -2.00290707E+00 -5.30487264E-01  5.86815059E+00
 -2.00290707E+00 -5.30487264E-01 -1.05578251E+00  3.59211763E+00 -1.40207234E+00
 -1.05578251E+00  3.59211763E+00 -1.40207234E+00 -1.05578251E+00  3.59211763E+00
 -1.40207234E+00 -5.76275415E+00 -1.31607036E+00  2.52283528E+00 -5.76275415E+00
 -1.31607036E+00  2.52283528E+00 -5.94690557E-02  4.19343369E+00 -3.05564139E+00
 -5.94690557E-02  4.19343369E+00 -3.05564139E+00  6.21703313E+00 -2.94564843E+00
  1.22394478E+00  6.21703313E+00 -2.94564843E+00  1.22394478E+00
Num ILSW                                   I              100
ILSW                                       I   N=         100
           0           1           0           0           2           0
           0           0           0           0        4639          -1
           5           0           0           0           0           0
           0           0           0           0           0           0
           1           0           0           0           0           0
           0           0      100000           0          -1           0
           0           0           0           0           0           0
           0           0           0           1           0           0
           0 -2000000000           1           0           0           0
           0           0         121          52           0           0
           0           0          58           0           0           0
           0           0           0          12           0           1
           0           0           0           0           0           0
           0           0           0           0           0           0
           0           0           0           0           0           0
           0           0           0           0           0           0
           0           0           0           0
Num RLSW                                   I               52
RLSW                                       R   N=          52
  1.00000000E+00  1.00000000E+00  1.00000000E+00  1.00000000E+00  1.00000000E+00
  0.00000000E+00  2.00000000E-01  2.22036000E-01  0.00000000E+00  7.77964000E-01
  0.00000000E+00  2.00000000E-01  0.00000000E+00  0.00000000E+00  1.00000000E+00
  0.00000000E+00  0.00000000E+00  1.00000000E+00  0.00000000E+00  0.00000000E+00
  0.00000000E+00  0.00000000E+00  1.00000000E+00  0.00000000E+00  0.00000000E+00
  0.00000000E+00  0.00000000E+00  1.00000000E+00  0.00000000E+00  0.00000000E+00
  0.00000000E+00  0.00000000E+00  1.00000000E+00  0.00000000E+00  0.00000000E+00
  0.00000000E+00  0.00000000E+00  0.00000000E+00  1.00000000E+00  1.00000000E+00
  0.00000000E+00  1.00000000E+00  0.00000000E+00  0.00000000E+00  0.00000000E+00
  0.00000000E+00  0.00000000E+00  0.00000000E+00  0.00000000E+00  0.00000000E+00
  0.00000000E+00  0.00000000E+00
MxBond                                     I                3
NBond                                      I   N=          12
           3           1           2           3           3           1
           2           2           2           1           1           1
IBond                                      I   N=          36
           2           3          10           1           0           0
           1           4           0           3           5           9
           4           6           7           5           0           0
           5           8           0           7          12           0
           4          11           0           1           0           0
           9           0           0           8           0           0
RBond                                      R   N=          36
  2.00000000E+00  1.50000000E+00  1.00000000E+00  2.00000000E+00  0.00000000E+00
  0.00000000E+00  1.50000000E+00  1.00000000E+00  0.00000000E+00  1.00000000E+00
  1.00000000E+00  1.00000000E+00  1.00000000E+00  2.00000000E+00  1.50000000E+00
  2.00000000E+00  0.00000000E+00  0.00000000E+00  1.50000000E+00  1.00000000E+00
  0.00000000E+00  1.00000000E+00  1.00000000E+00  0.00000000E+00  1.00000000E+00
  1.00000000E+00  0.00000000E+00  1.00000000E+00  0.00000000E+00  0.00000000E+00
  1.00000000E+00  0.00000000E+00  0.00000000E+00  1.00000000E+00  0.00000000E+00
  0.00000000E+00
Virial Ratio                               R      2.005060806201032E+00
SCF Energy                                 R     -4.511391941830855E+02
Total Energy                               R     -4.511391941830855E+02
RMS Density                                R      6.939003994783793E-09
Job Status                                 I                1
Nuclear derivative order                   I                0
External E-field                           R   N=          35
  0.00000000E+00  0.00000000E+00  0.00000000E+00  0.00000000E+00  0.00000000E+00
  0.00000000E+00  0.00000000E+00  0.00000000E+00  0.00000000E+00  0.00000000E+00
  0.00000000E+00  0.00000000E+00  0.00000000E+00  0.00000000E+00  0.00000000E+00
  0.00000000E+00  0.00000000E+00  0.00000000E+00  0.00000000E+00  0.00000000E+00
  0.00000000E+00  0.00000000E+00  0.00000000E+00  0.00000000E+00  0.00000000E+00
  0.00000000E+00  0.00000000E+00  0.00000000E+00  0.00000000E+00  0.00000000E+00
  0.00000000E+00  0.00000000E+00  0.00000000E+00  0.00000000E+00  0.00000000E+00
IOpCl                                      I                0
IROHF                                      I                0
Alpha Orbital Energies                     R   N=          87
 -1.95268457E+01 -1.94328137E+01 -1.48051401E+01 -1.46907022E+01 -1.07185210E+01
 -1.06828796E+01 -1.06313634E+01 -1.06302632E+01 -1.05715605E+01 -1.44318696E+00
 -1.37238186E+00 -1.30622247E+00 -1.22494681E+00 -1.10854084E+00 -1.05642464E+00
 -9.60812557E-01 -9.03658197E-01 -8.64065869E-01 -7.95020153E-01 -7.90920871E-01
 -7.88737577E-01 -7.41372707E-01 -7.06035081E-01 -6.94586568E-01 -6.73951321E-01
 -6.52640927E-01 -6.44154679E-01 -5.96559681E-01 -5.47764833E-01 -5.18548559E-01
 -4.97244738E-01 -3.70479840E-01 -3.05480147E-01 -2.97187428E-01 -2.17627838E-01
 -1.47350762E-01 -5.59635802E-02 -8.86352133E-04  2.03272300E-02  3.95181845E-02
  8.67084007E-02  9.58959474E-02  1.09956328E-01  1.30253646E-01  1.67650276E-01
  2.03811833E-01  2.66240056E-01  2.78437576E-01  3.72577315E-01  3.98031518E-01
  4.04630212E-01  4.11193260E-01  4.21852975E-01  4.26174435E-01  4.63449124E-01
  4.63619322E-01  4.67608782E-01  4.95630905E-01  5.11961305E-01  5.34591736E-01
  5.85566381E-01  5.91416498E-01  6.23046354E-01  6.31372911E-01  6.56027135E-01
  6.75637590E-01  7.39416095E-01  7.63197586E-01  7.72833551E-01  8.08460074E-01
  8.21566724E-01  8.41790814E-01  8.52182939E-01  8.79071370E-01  8.88822668E-01
  9.19186643E-01  9.35509647E-01  9.77035538E-01  1.01594309E+00  1.05333891E+00
  1.10855050E+00  1.14854923E+00  1.23622874E+00  1.37594442E+00  1.50956579E+00
  1.68409130E+00  1.79416331E+00
Alpha MO coefficients                      R   N=        7569
 -8.26012228E-06 -1.49510189E-04 -1.22393114E-04 -9.03966731E-05 -3.97904707E-05
 -9.82634868E-04 -2.73077197E-04 -4.55908104E-04 -1.08022357E-04  2.34439241E-05
  3.77836301E-05  3.72004614E-05 -2.57364934E-05  1.62644252E-06 -5.69399628E-05
 -8.72932148E-05  1.38033966E-04 -3.89977700E-05 -4.09524489E-06 -2.68887908E-06
  1.89043692E-04  2.56274847E-05  4.12699032E-05  9.05108479E-04 -1.58190481E-03
 -1.16053600E-05 -4.70074069E-04 -3.58481186E-05 -4.99862526E-04 -2.98222409E-04
 -5.75623086E-05 -1.82425377E-04  4.00400691E-03  3.19093105E-03 -2.02539834E-03
 -6.54596659E-04  2.41473881E-04  3.45222505E-04  3.33706505E-05 -1.08883252E-04
 -1.18651377E-04  6.07193073E-03  5.85640865E-03  7.89972227E-03  1.10684490E-02
  9.95256153E-01  2.98635437E-02 -1.00224943E-03 -1.41177209E-03 -1.94485018E-03
 -2.48596366E-02  3.24138457E-03  4.02021742E-03  5.59223923E-03 -1.62983452E-05
 -3.18864910E-04  2.57225321E-04 -2.23577282E-04 -9.90752523E-05  3.00261817E-03
 -3.85838199E-03  1.25458348E-03 -5.62535505E-04  2.79208331E-05  2.41555165E-04
 -2.16370359E-04 -3.03707058E-05 -1.74491639E-04  1.37932555E-03 -6.09815165E-04
 -1.86877377E-04 -2.67492427E-04  4.73886183E-05  4.25044776E-04  2.74444827E-06
 -1.50984261E-05 -3.63391387E-05 -7.59888903E-04 -1.12708845E-03 -1.85482229E-04
  4.05514320E-04  3.61123869E-05  3.69428248E-05  2.13957347E-04  6.04970899E-04
  3.92490740E-05 -2.78494675E-04  2.40963488E-04  8.45875790E-05 -8.03320520E-05
  5.24663179E-06  2.34039497E-04  9.89217348E-03 -2.83630870E-04 -2.37140054E-03
 -8.68733612E-03  9.95185937E-01  2.92598020E-02  7.23698282E-04  1.03385547E-03
  2.31090178E-03 -2.13355512E-02 -1.91651419E-03 -2.54601659E-03 -5.58676149E-03
  3.08879476E-05  1.79563890E-04  3.19369835E-04  1.06580463E-04 -1.30384234E-04
 -2.32611199E-03 -1.23474172E-03 -3.11051030E-05  2.67864662E-03 -1.22135189E-05
 -1.43920440E-04 -2.97420039E-05 -1.83946100E-05  2.35532609E-04  2.56826828E-03
 -7.54801218E-04  3.67429787E-04  8.95181781E-04 -6.48571716E-06 -9.79252450E-05
  5.18558164E-05 -1.73274751E-05  2.35547591E-05  2.59258850E-04  1.66064336E-04
 -2.62925029E-04 -2.51932127E-04 -2.16880306E-05  3.54379847E-05 -1.56242924E-05
  2.29959080E-06 -7.80194090E-06 -1.02677948E-05  3.17574302E-05  6.78487515E-06
  3.69275561E-05  3.27228025E-06  4.07793674E-05 -9.66036611E-06 -1.06964055E-05
  8.21576175E-06 -3.26118403E-04  1.09745032E-04 -8.15866792E-05 -1.26572135E-04
  1.22095869E-06  1.67833388E-05 -8.95096804E-06  9.29449866E-06 -1.09385153E-06
 -3.16521333E-05  2.94554062E-05 -3.69584015E-05  4.60067142E-05  1.21507118E-05
  1.76100002E-04 -9.98823099E-05 -1.59853593E-05  2.62777241E-06 -8.16527413E-04
  2.72301714E-04  5.33985483E-04 -2.85616821E-04 -2.75646230E-05  1.60681734E-03
 -9.31581386E-06 -1.00161346E-04 -3.13404352E-06 -3.14151524E-05 -2.27661247E-07
  7.90776455E-05  7.78164876E-05  3.06970821E-05  1.18419666E-05  7.99463026E-04
  4.23235115E-04  1.65242373E-04 -8.35262368E-04  5.30145385E-06  5.99666406E-05
 -3.13116845E-05 -6.33227059E-06  6.56136024E-07 -6.12093983E-04 -1.74386819E-05
 -1.08469394E-04 -1.35935744E-04  1.21640498E-04  3.84958457E-04 -5.04734135E-05
 -7.72652297E-05 -6.98777434E-05 -2.68695069E-03 -1.71749293E-04 -1.29807528E-04
  1.25657773E-03 -1.22715549E-04 -1.16588506E-03 -4.26027082E-05 -8.56221929E-05
  7.15579518E-05  6.58978278E-03  4.75437851E-04  1.58113553E-03  2.48478001E-03
  1.00956035E-04 -8.56969218E-04 -2.73527010E-04  5.22958503E-04  4.28654276E-04
  1.08856288E-02  8.66087109E-03 -8.11238343E-03 -4.60807786E-03 -2.12978362E-06
 -2.60654859E-04  2.26471453E-04 -8.06687782E-06  1.00250297E-04  2.67061224E-04
 -1.87505662E-03  9.95552485E-04  1.85843040E-04  9.95484712E-01  3.20164422E-02
  7.80952817E-04  1.33007502E-03  1.69256624E-03 -3.05046814E-02 -9.84503964E-04
 -5.35426625E-03 -6.18791340E-03  9.58092485E-05 -7.22650769E-05 -2.06658479E-04
  2.08777261E-04  1.45748464E-04  5.71720692E-03 -3.37553706E-03  9.66199506E-04
 -3.51576114E-04 -1.78514303E-05 -2.83100475E-04 -9.99133117E-06  1.37273479E-04
 -9.88786212E-05 -6.36961229E-04  3.16718905E-04  6.41959577E-04 -4.55810276E-04
  6.12103336E-05  3.23904791E-04 -1.68314781E-05 -4.25709124E-04 -3.01504296E-04
 -6.49444225E-06  9.96788642E-05 -7.74912647E-04 -4.15363433E-04 -2.58685534E-04
 -2.47777014E-04  1.11415419E-02  6.89850743E-03  3.20119107E-03 -2.39672693E-03
  1.87257651E-05  1.60270833E-04  8.50323561E-05  1.11118935E-05 -1.99981591E-04
 -2.50982162E-03 -1.24022234E-03 -7.71927392E-04  2.45327836E-05  9.95447433E-01
  3.19838145E-02 -7.54742952E-04 -4.24779135E-04 -1.89827925E-03 -2.82550237E-02
  2.35898613E-03  2.08436676E-03  6.58457001E-03  6.82052818E-05 -3.31577151E-04
 -2.87689120E-04 -1.24999412E-04 -1.14339392E-04  5.43566753E-03 -3.73195718E-03
 -1.06658969E-03  3.81381581E-03 -5.91522737E-05 -7.11558479E-04  3.08066612E-04
  1.25009980E-04  2.05301808E-05  3.14528803E-03 -2.93731494E-04 -1.70396570E-03
 -2.12638565E-03 -3.00506243E-06 -2.19314835E-05 -4.15442561E-05  1.71525038E-05
 -1.88602989E-05  6.87507214E-04  7.20748187E-05 -4.29005570E-05  8.74735368E-08
 -5.93237548E-05  3.61130118E-04 -1.18458744E-04 -1.53138980E-05  7.97156923E-05
 -2.44525616E-03  1.36439919E-03 -7.51817127E-04 -7.17704567E-04 -6.20936408E-06
 -4.79119457E-05  1.22528553E-05  2.92244141E-05 -1.09424663E-05 -1.89761401E-04
  1.96065261E-04 -1.19779914E-04  4.20832378E-04 -4.27521967E-05 -5.46481970E-04
  1.02641880E-04  2.23389791E-04 -2.65712511E-04  4.31934083E-04 -4.76568894E-06
 -8.58627738E-04  6.09921407E-04  6.10159428E-05  1.72864298E-03 -2.00590366E-05
  8.19043127E-04 -4.55466894E-05 -2.28979906E-04 -9.19950284E-06 -3.37932137E-05
 -1.78157495E-05 -2.37533049E-05  1.07226950E-05  1.22022695E-04  9.26210987E-05
  1.00589727E-04 -5.43824403E-04  2.40002708E-06  2.92084975E-05 -1.13512860E-05
 -5.20305710E-06  7.40374132E-06 -3.15287922E-04  1.45113645E-05 -5.00737260E-05
 -9.25466724E-05  8.28552434E-06  3.26699672E-05 -4.49045803E-05  1.81207245E-05
  4.64338976E-06 -1.08468604E-03 -4.18524574E-04 -3.74197811E-04  5.15782018E-04
 -1.97102143E-04 -8.53599863E-04  1.62185961E-04 -2.20219529E-04 -1.66471517E-05
  7.31303167E-03  2.11923098E-03  6.15115717E-04  1.69209193E-03 -7.56400073E-05
 -1.07718919E-04 -4.14758154E-04  9.52202253E-05 -6.45105792E-05  9.75236016E-04
  7.56795211E-03 -1.68427357E-03  1.26831305E-03  2.45491802E-05  2.17905417E-04
 -9.53914739E-05  8.95739093E-05  3.03585145E-05 -2.41935729E-03 -3.11827478E-04
  6.31295598E-04  6.35215723E-04  5.42396204E-05  2.00534343E-04 -4.12883793E-04
  2.87681250E-04 -2.81605390E-06 -9.37931900E-04 -1.42677140E-04 -2.29222793E-03
 -1.21144511E-03  9.95462710E-01  3.14636009E-02 -1.73991435E-03 -4.20967056E-04
  1.05683404E-03 -1.76062132E-02  2.39903622E-03  9.21420132E-04 -3.22728898E-03
 -6.04167424E-05 -1.66459772E-04 -2.64429802E-05  1.42226153E-04 -4.85733532E-05
 -7.13055452E-04 -1.08601877E-04  4.06746198E-04 -4.02446081E-04  4.32098680E-05
  2.22663430E-04 -3.67837119E-06 -1.51733780E-04 -9.26230431E-04  6.01344626E-03
 -1.61759603E-05 -6.41653581E-05  6.03113350E-05 -1.95727319E-06  8.19251174E-05
  1.29859963E-03  5.16570875E-04  8.09619994E-04  4.54257301E-04 -5.87839172E-06
 -8.94032321E-05  2.66760574E-05 -1.66500965E-05  1.70860513E-05  4.15912014E-04
 -4.82806747E-05  1.72834692E-05  6.89456475E-05 -3.54880216E-05 -5.76481716E-04
 -3.31885022E-04  4.92123571E-05  4.58313544E-05  1.27008195E-03  2.19329438E-03
  6.38894565E-04 -8.83898189E-04  2.02348740E-03 -2.10421271E-04 -4.04287969E-04
  1.64533406E-04 -2.39962642E-04  3.26297523E-03  4.89717071E-03 -2.65968501E-03
 -6.21010561E-05  9.95157185E-01  3.41145437E-02  6.70018332E-04  3.58474504E-05
  6.32328773E-05 -1.98524071E-02  5.25156867E-03  1.56979259E-03  4.23266572E-03
 -1.28644455E-04  2.61650229E-05  2.76840225E-04  2.12141614E-04  3.46509123E-04
 -1.79698955E-03 -4.25770952E-05  1.40370180E-03  1.44158787E-03 -7.57571935E-05
 -5.18230430E-04  6.30651187E-04 -6.85670787E-04 -4.18580200E-04  1.96094120E-03
 -3.08119098E-03  7.55714566E-04 -7.51359084E-04  1.48181444E-05 -2.56183855E-04
 -1.52378502E-04 -6.88449541E-06 -3.77294744E-05  2.33813868E-03 -1.32640802E-03
  5.50760663E-04  5.77974634E-05 -3.86709456E-04 -1.06453474E-03 -1.65990820E-04
  8.34916067E-05  1.89368493E-05  3.64354756E-03  7.13199129E-04 -1.72584195E-03
  4.40701452E-04 -7.65768810E-05 -4.53348692E-05 -3.58446137E-04 -1.65800136E-05
 -2.15476950E-04  6.28969491E-05 -1.12988947E-04 -2.85483862E-04 -2.71497804E-05
  8.48388707E-05  2.20791974E-04  3.98917644E-03  2.80481626E-03  8.16974560E-04
 -8.27013777E-04  7.18697069E-06 -2.17312762E-05 -6.09604723E-05 -6.39696768E-05
  9.81668703E-06 -7.50890571E-04 -3.77703376E-04 -2.20082808E-05 -1.10810918E-04
 -7.77703779E-06 -4.05333149E-04 -4.45881192E-04 -2.12068063E-04  2.94565553E-04