 Entering Gaussian System, Link 0=g16
 Input=4znn_01_gebf_dft_11.gjf
 Output=4znn_01_gebf_dft_11.log
 Initial command:
 /work/01114/jfonner/frontera/gaussian/16rC.01/g16/l1.exe "/scratch1/08249/sa748948/lsqc/62950343/Gau-181061.inp" -scrdir="/scratch1/08249/sa748948/lsqc/62950343/"
 Entering Link 1 = /work/01114/jfonner/frontera/gaussian/16rC.01/g16/l1.exe PID=    181062.
  
 Copyright (c) 1988-2019, Gaussian, Inc.  All Rights Reserved.
  
 This is part of the Gaussian(R) 16 program.  It is based on
 the Gaussian(R) 09 system (copyright 2009, Gaussian, Inc.),
 the Gaussian(R) 03 system (copyright 2003, Gaussian, Inc.),
 the Gaussian(R) 98 system (copyright 1998, Gaussian, Inc.),
 the Gaussian(R) 94 system (copyright 1995, Gaussian, Inc.),
 the Gaussian 92(TM) system (copyright 1992, Gaussian, Inc.),
 the Gaussian 90(TM) system (copyright 1990, Gaussian, Inc.),
 the Gaussian 88(TM) system (copyright 1988, Gaussian, Inc.),
 the Gaussian 86(TM) system (copyright 1986, Carnegie Mellon
 University), and the Gaussian 82(TM) system (copyright 1983,
 Carnegie Mellon University). Gaussian is a federally registered
 trademark of Gaussian, Inc.
  
 This software contains proprietary and confidential information,
 including trade secrets, belonging to Gaussian, Inc.
  
 This software is provided under written license and may be
 used, copied, transmitted, or stored only in accord with that
 written license.
  
 The following legend is applicable only to US Government
 contracts under FAR:
  
                    RESTRICTED RIGHTS LEGEND
  
 Use, reproduction and disclosure by the US Government is
 subject to restrictions as set forth in subparagraphs (a)
 and (c) of the Commercial Computer Software - Restricted
 Rights clause in FAR 52.227-19.
  
 Gaussian, Inc.
 340 Quinnipiac St., Bldg. 40, Wallingford CT 06492
  
  
 ---------------------------------------------------------------
 Warning -- This program may not be used in any manner that
 competes with the business of Gaussian, Inc. or will provide
 assistance to any competitor of Gaussian, Inc.  The licensee
 of this program is prohibited from giving any competitor of
 Gaussian, Inc. access to this program.  By using this program,
 the user acknowledges that Gaussian, Inc. is engaged in the
 business of creating and licensing software in the field of
 computational chemistry and represents and warrants to the
 licensee that it is not a competitor of Gaussian, Inc. and that
 it will not use this program in any manner prohibited above.
 ---------------------------------------------------------------
  

 Cite this work as:
 Gaussian 16, Revision C.01,
 M. J. Frisch, G. W. Trucks, H. B. Schlegel, G. E. Scuseria, 
 M. A. Robb, J. R. Cheeseman, G. Scalmani, V. Barone, 
 G. A. Petersson, H. Nakatsuji, X. Li, M. Caricato, A. V. Marenich, 
 J. Bloino, B. G. Janesko, R. Gomperts, B. Mennucci, H. P. Hratchian, 
 J. V. Ortiz, A. F. Izmaylov, J. L. Sonnenberg, D. Williams-Young, 
 F. Ding, F. Lipparini, F. Egidi, J. Goings, B. Peng, A. Petrone, 
 T. Henderson, D. Ranasinghe, V. G. Zakrzewski, J. Gao, N. Rega, 
 G. Zheng, W. Liang, M. Hada, M. Ehara, K. Toyota, R. Fukuda, 
 J. Hasegawa, M. Ishida, T. Nakajima, Y. Honda, O. Kitao, H. Nakai, 
 T. Vreven, K. Throssell, J. A. Montgomery, Jr., J. E. Peralta, 
 F. Ogliaro, M. J. Bearpark, J. J. Heyd, E. N. Brothers, K. N. Kudin, 
 V. N. Staroverov, T. A. Keith, R. Kobayashi, J. Normand, 
 K. Raghavachari, A. P. Rendell, J. C. Burant, S. S. Iyengar, 
 J. Tomasi, M. Cossi, J. M. Millam, M. Klene, C. Adamo, R. Cammi, 
 J. W. Ochterski, R. L. Martin, K. Morokuma, O. Farkas, 
 J. B. Foresman, and D. J. Fox, Gaussian, Inc., Wallingford CT, 2019.
 
 ******************************************
 Gaussian 16:  ES64L-G16RevC.01  3-Jul-2019
                 5-Jan-2022 
 ******************************************
 %chk=4znn_01_gebf_dft_11.chk
 %nproc=56
 Will use up to   56 processors via shared memory.
 %mem=3gb
 ----------------------------
 #p int=acc2e=12 wb97xd/6-31g
 ----------------------------
 1/38=1,172=1/1;
 2/12=2,17=6,18=5,40=1/2;
 3/5=1,6=6,11=2,25=1,27=12,30=1,74=-58/1,2,3;
 4//1;
 5/5=2,38=5,87=12/2;
 6/7=2,8=2,9=2,10=2,28=1,87=12/1;
 99/5=1,9=1/99;
 Leave Link    1 at Wed Jan  5 16:35:50 2022, MaxMem=   402653184 cpu:               3.1 elap:               0.7
 (Enter /work/01114/jfonner/frontera/gaussian/16rC.01/g16/l101.exe)
 --------------
 Atom number=14
 --------------
 Symbolic Z-matrix:
 Charge =  2 Multiplicity = 1
 c                     4.271     0.817     11.296 
 o                     4.359     2.033     11.367 
 n                     3.492     0.104     12.073 
 c                     2.585     0.677     13.085 
 c                     3.006     0.047     14.361 
 o                     2.958    -1.169     14.515 
 n                     3.481     0.887     15.262 
 c                     4.163     0.392     16.442 
 c                     1.127     0.33      12.827 
 c                     0.248     0.675     14.038 
 h                     4.84396   0.24332   10.59779 
 h                     0.80275   0.84321   11.94588 
 h                     3.64026   0.79732   17.28305 
 h                     5.20409   0.6364    16.40582 
 
 ITRead=  0  0  0  0  0  0  0  0  0  0  0  0  0  0
 MicOpt= -1 -1 -1 -1 -1 -1 -1 -1 -1 -1 -1 -1 -1 -1
 NAtoms=     14 NQM=       14 NQMF=       0 NMMI=      0 NMMIF=      0
                NMic=       0 NMicF=      0.
                    Isotopes and Nuclear Properties:
 (Nuclear quadrupole moments (NQMom) in fm**2, nuclear magnetic moments (NMagM)
  in nuclear magnetons)

  Atom         1           2           3           4           5           6           7           8           9          10
 IAtWgt=          12          16          14          12          12          16          14          12          12          12
 AtmWgt=  12.0000000  15.9949146  14.0030740  12.0000000  12.0000000  15.9949146  14.0030740  12.0000000  12.0000000  12.0000000
 NucSpn=           0           0           2           0           0           0           2           0           0           0
 AtZEff=  -0.0000000  -0.0000000  -0.0000000  -0.0000000  -0.0000000  -0.0000000  -0.0000000  -0.0000000  -0.0000000  -0.0000000
 NQMom=    0.0000000   0.0000000   2.0440000   0.0000000   0.0000000   0.0000000   2.0440000   0.0000000   0.0000000   0.0000000
 NMagM=    0.0000000   0.0000000   0.4037610   0.0000000   0.0000000   0.0000000   0.4037610   0.0000000   0.0000000   0.0000000
 AtZNuc=   6.0000000   8.0000000   7.0000000   6.0000000   6.0000000   8.0000000   7.0000000   6.0000000   6.0000000   6.0000000

  Atom        11          12          13          14
 IAtWgt=           1           1           1           1
 AtmWgt=   1.0078250   1.0078250   1.0078250   1.0078250
 NucSpn=           1           1           1           1
 AtZEff=  -0.0000000  -0.0000000  -0.0000000  -0.0000000
 NQMom=    0.0000000   0.0000000   0.0000000   0.0000000
 NMagM=    2.7928460   2.7928460   2.7928460   2.7928460
 AtZNuc=   1.0000000   1.0000000   1.0000000   1.0000000
 Leave Link  101 at Wed Jan  5 16:35:51 2022, MaxMem=   402653184 cpu:               6.8 elap:               1.4
 (Enter /work/01114/jfonner/frontera/gaussian/16rC.01/g16/l202.exe)
                          Input orientation:                          
 ---------------------------------------------------------------------
 Center     Atomic      Atomic             Coordinates (Angstroms)
 Number     Number       Type             X           Y           Z
 ---------------------------------------------------------------------
      1          6           0        4.271000    0.817000   11.296000
      2          8           0        4.359000    2.033000   11.367000
      3          7           0        3.492000    0.104000   12.073000
      4          6           0        2.585000    0.677000   13.085000
      5          6           0        3.006000    0.047000   14.361000
      6          8           0        2.958000   -1.169000   14.515000
      7          7           0        3.481000    0.887000   15.262000
      8          6           0        4.163000    0.392000   16.442000
      9          6           0        1.127000    0.330000   12.827000
     10          6           0        0.248000    0.675000   14.038000
     11          1           0        4.843965    0.243316   10.597789
     12          1           0        0.802753    0.843213   11.945878
     13          1           0        3.640262    0.797316   17.283049
     14          1           0        5.204086    0.636399   16.405818
 ---------------------------------------------------------------------
                    Distance matrix (angstroms):
                    1          2          3          4          5
     1  C    0.000000
     2  O    1.221246   0.000000
     3  N    1.311083   2.229611   0.000000
     4  C    2.462259   2.817328   1.474829   0.000000
     5  C    3.404020   3.839120   2.339741   1.484021   0.000000
     6  O    4.003764   4.703776   2.805183   2.364687   1.226652
     7  N    4.044522   4.153941   3.283737   2.363524   1.320237
     8  C    5.164650   5.337314   4.429599   3.720317   2.405875
     9  C    3.530703   3.934162   2.492552   1.520769   2.442107
    10  C    4.870653   5.087114   3.835466   2.523843   2.846977
    11  H    1.070000   2.007447   2.005857   3.387804   4.192661
    12  H    3.528706   3.794415   2.791889   2.121705   3.364680
    13  H    6.020214   6.086307   5.258068   4.330320   3.082797
    14  H    5.197452   5.296636   4.689136   4.229550   3.059453
                    6          7          8          9         10
     6  O    0.000000
     7  N    2.249150   0.000000
     8  C    2.757186   1.450017   0.000000
     9  C    2.906700   3.432316   4.721161   0.000000
    10  C    3.312396   3.463439   4.602883   1.535639   0.000000
    11  H    4.571218   4.901720   5.885628   4.335057   5.757108
    12  H    3.910816   4.262815   5.631161   1.070000   2.170950
    13  H    3.463232   2.029297   1.070000   5.137241   4.696035
    14  H    3.446674   2.083302   1.070000   5.433640   5.492799
                   11         12         13         14
    11  H    0.000000
    12  H    4.302164   0.000000
    13  H    6.815315   6.044747   0.000000
    14  H    5.832444   6.269416   1.800270   0.000000
 Stoichiometry    C6H4N2O2(2+)
 Framework group  C1[X(C6H4N2O2)]
 Deg. of freedom    36
 Full point group                 C1      NOp   1
 Largest Abelian subgroup         C1      NOp   1
 Largest concise Abelian subgroup C1      NOp   1
                         Standard orientation:                         
 ---------------------------------------------------------------------
 Center     Atomic      Atomic             Coordinates (Angstroms)
 Number     Number       Type             X           Y           Z
 ---------------------------------------------------------------------
      1          6           0       -2.410610   -0.798662    0.325323
      2          8           0       -2.628724   -1.057722   -0.848029
      3          7           0       -1.381171   -0.094057    0.728716
      4          6           0       -0.393897    0.521386   -0.177729
      5          6           0        0.908548   -0.047106    0.249787
      6          8           0        1.336796    0.130408    1.385467
      7          7           0        1.512300   -0.790501   -0.658988
      8          6           0        2.651183   -1.612531   -0.298762
      9          6           0       -0.335428    2.034604   -0.038124
     10          6           0        0.889966    2.615099   -0.758972
     11          1           0       -3.043491   -1.148430    1.114007
     12          1           0       -1.247074    2.449510   -0.414495
     13          1           0        3.451311   -1.316543   -0.944584
     14          1           0        2.398196   -2.650847   -0.351661
 ---------------------------------------------------------------------
 Rotational constants (GHZ):           1.7737116           1.0698576           0.8145243
 Leave Link  202 at Wed Jan  5 16:35:52 2022, MaxMem=   402653184 cpu:               3.5 elap:               0.8
 (Enter /work/01114/jfonner/frontera/gaussian/16rC.01/g16/l301.exe)
 Standard basis: 6-31G (6D, 7F)
 Ernie: Thresh=  0.10000D-02 Tol=  0.10000D-05 Strict=F.
 There are    98 symmetry adapted cartesian basis functions of A   symmetry.
 There are    98 symmetry adapted basis functions of A   symmetry.
    98 basis functions,   236 primitive gaussians,    98 cartesian basis functions
    34 alpha electrons       34 beta electrons
       nuclear repulsion energy       451.5993773049 Hartrees.
 IExCor= 4639 DFT=T Ex+Corr=wB97XD ExCW=0 ScaHFX=  1.000000
 ScaDFX=  1.000000  1.000000  1.000000  1.000000 ScalE2=  1.000000  1.000000
 IRadAn=      5 IRanWt=     -1 IRanGd=            0 ICorTp=0 IEmpDi=121
 HFx  wShort=  0.000000 wLong=  0.200000 cFull=  0.222036 cShort=  0.000000 cLong=  0.777964
 DFx  wShort=  0.000000 wLong=  0.200000 cFull=  0.000000 cShort=  0.000000 cLong=  1.000000
 NAtoms=   14 NActive=   14 NUniq=   14 SFac= 1.00D+00 NAtFMM=   60 NAOKFM=F Big=F
 Integral buffers will be    131072 words long.
 Raffenetti 2 integral format.
 Two-electron integral symmetry is turned on.
 R6Disp:  Grimme-D2 Dispersion energy=       -0.0054120408 Hartrees.
 Nuclear repulsion after empirical dispersion term =      451.5939652642 Hartrees.
 Leave Link  301 at Wed Jan  5 16:35:53 2022, MaxMem=   402653184 cpu:               4.0 elap:               1.0
 (Enter /work/01114/jfonner/frontera/gaussian/16rC.01/g16/l302.exe)
 NPDir=0 NMtPBC=     1 NCelOv=     1 NCel=       1 NClECP=     1 NCelD=      1
         NCelK=      1 NCelE2=     1 NClLst=     1 CellRange=     0.0.
 One-electron integrals computed using PRISM.
 One-electron integral symmetry used in STVInt
 NBasis=    98 RedAO= T EigKep=  3.84D-03  NBF=    98
 NBsUse=    98 1.00D-06 EigRej= -1.00D+00 NBFU=    98
 Precomputing XC quadrature grid using
 IXCGrd= 4 IRadAn=           5 IRanWt=          -1 IRanGd=           0 AccXCQ= 1.00D-12.
 Generated NRdTot=       0 NPtTot=           0 NUsed=           0 NTot=          32
 NSgBfM=    98    98    98    98    98 MxSgAt=    14 MxSgA2=    14.
 Leave Link  302 at Wed Jan  5 16:36:05 2022, MaxMem=   402653184 cpu:              59.3 elap:               9.9
 (Enter /work/01114/jfonner/frontera/gaussian/16rC.01/g16/l303.exe)
 DipDrv:  MaxL=1.
 Leave Link  303 at Wed Jan  5 16:36:07 2022, MaxMem=   402653184 cpu:               9.9 elap:               2.0
 (Enter /work/01114/jfonner/frontera/gaussian/16rC.01/g16/l401.exe)
 ExpMin= 1.61D-01 ExpMax= 5.48D+03 ExpMxC= 8.25D+02 IAcc=3 IRadAn=         5 AccDes= 0.00D+00
 Harris functional with IExCor= 4639 and IRadAn=       5 diagonalized for initial guess.
 HarFok:  IExCor= 4639 AccDes= 0.00D+00 IRadAn=         5 IDoV= 1 UseB2=F ITyADJ=14
 ICtDFT=  3500011 ScaDFX=  1.000000  1.000000  1.000000  1.000000
 FoFCou: FMM=F IPFlag=           0 FMFlag=      100000 FMFlg1=           0
         NFxFlg=           0 DoJE=T BraDBF=F KetDBF=T FulRan=T
         wScrn=  0.000000 ICntrl=       500 IOpCl=  0 I1Cent=   200000004 NGrid=           0
         NMat0=    1 NMatS0=      1 NMatT0=    0 NMatD0=    1 NMtDS0=    0 NMtDT0=    0
 Petite list used in FoFCou.
 Harris En= -470.541335440864    
 JPrj=0 DoOrth=F DoCkMO=F.
 Leave Link  401 at Wed Jan  5 16:36:18 2022, MaxMem=   402653184 cpu:              56.2 elap:              11.3
 (Enter /work/01114/jfonner/frontera/gaussian/16rC.01/g16/l502.exe)
 Integral symmetry usage will be decided dynamically.
 Closed shell SCF:
 Using DIIS extrapolation, IDIIS=  1040.
 NGot=   402653184 LenX=   402626870 LenY=   402616825
 Requested convergence on RMS density matrix=1.00D-08 within 128 cycles.
 Requested convergence on MAX density matrix=1.00D-06.
 Requested convergence on             energy=1.00D-06.
 No special actions if energy rises.
 Fock matrices will be formed incrementally for  20 cycles.
 Integral accuracy reduced to 1.0D-05 until final iterations.

 Cycle   1  Pass 0  IDiag  1:
 FoFJK:  IHMeth= 1 ICntrl=       0 DoSepK=T KAlg= 0 I1Cent=           0 FoldK=F
 IRaf=         1 NMat=       1 IRICut=       1 DoRegI=T DoRafI=F ISym2E= 0 IDoP0=0 IntGTp=1.
 FoFCou: FMM=F IPFlag=           0 FMFlag=      100000 FMFlg1=           0
         NFxFlg=           0 DoJE=T BraDBF=F KetDBF=F FulRan=T
         wScrn=  0.000000 ICntrl=       500 IOpCl=  0 I1Cent=           0 NGrid=           0
         NMat0=    1 NMatS0=      1 NMatT0=    0 NMatD0=    1 NMtDS0=    0 NMtDT0=    0
 Symmetry not used in FoFCou.
 E= -488.913843848984    
 DIIS: error= 3.54D-02 at cycle   1 NSaved=   1.
 NSaved= 1 IEnMin= 1 EnMin= -488.913843848984     IErMin= 1 ErrMin= 3.54D-02
 ErrMax= 3.54D-02  0.00D+00 EMaxC= 1.00D-01 BMatC= 4.03D-01 BMatP= 4.03D-01
 IDIUse=3 WtCom= 6.46D-01 WtEn= 3.54D-01
 Coeff-Com:  0.100D+01
 Coeff-En:   0.100D+01
 Coeff:      0.100D+01
 Gap=     0.023 Goal=   None    Shift=    0.000
 GapD=    0.023 DampG=0.250 DampE=0.500 DampFc=0.2500 IDamp=-1.
 Damping current iteration by 2.50D-01
 RMSDP=1.52D-02 MaxDP=3.18D-01              OVMax= 7.34D-01

 Cycle   2  Pass 0  IDiag  1:
 RMSU=  3.79D-03    CP:  9.95D-01
 E= -488.996490919806     Delta-E=       -0.082647070822 Rises=F Damp=T
 DIIS: error= 2.30D-02 at cycle   2 NSaved=   2.
 NSaved= 2 IEnMin= 2 EnMin= -488.996490919806     IErMin= 2 ErrMin= 2.30D-02
 ErrMax= 2.30D-02  0.00D+00 EMaxC= 1.00D-01 BMatC= 1.56D-01 BMatP= 4.03D-01
 IDIUse=3 WtCom= 7.70D-01 WtEn= 2.30D-01
 Coeff-Com: -0.349D+00 0.135D+01
 Coeff-En:   0.114D+00 0.886D+00
 Coeff:     -0.242D+00 0.124D+01
 Gap=     0.085 Goal=   None    Shift=    0.000
 RMSDP=7.43D-03 MaxDP=1.64D-01 DE=-8.26D-02 OVMax= 5.65D-01

 Cycle   3  Pass 0  IDiag  1:
 RMSU=  7.27D-03    CP:  1.01D+00  1.35D+00
 E= -489.053704644140     Delta-E=       -0.057213724334 Rises=F Damp=F
 DIIS: error= 4.47D-02 at cycle   3 NSaved=   3.
 NSaved= 3 IEnMin= 3 EnMin= -489.053704644140     IErMin= 2 ErrMin= 2.30D-02
 ErrMax= 4.47D-02  0.00D+00 EMaxC= 1.00D-01 BMatC= 2.42D-01 BMatP= 1.56D-01
 IDIUse=2 WtCom= 0.00D+00 WtEn= 1.00D+00
 Coeff-En:   0.000D+00 0.400D+00 0.600D+00
 Coeff:      0.000D+00 0.400D+00 0.600D+00
 Gap=     0.187 Goal=   None    Shift=    0.000
 RMSDP=1.21D-02 MaxDP=3.36D-01 DE=-5.72D-02 OVMax= 8.20D-01

 Cycle   4  Pass 0  IDiag  1:
 RMSU=  4.22D-03    CP:  9.80D-01  3.00D+00 -9.95D-02
 E= -488.254622141398     Delta-E=        0.799082502742 Rises=F Damp=F
 DIIS: error= 9.78D-02 at cycle   4 NSaved=   4.
 NSaved= 4 IEnMin= 3 EnMin= -489.053704644140     IErMin= 2 ErrMin= 2.30D-02
 ErrMax= 9.78D-02  0.00D+00 EMaxC= 1.00D-01 BMatC= 9.28D-01 BMatP= 1.56D-01
 IDIUse=2 WtCom= 0.00D+00 WtEn= 1.00D+00
 Coeff-En:   0.000D+00 0.000D+00 0.731D+00 0.269D+00
 Coeff:      0.000D+00 0.000D+00 0.731D+00 0.269D+00
 Gap=     0.096 Goal=   None    Shift=    0.000
 RMSDP=7.70D-03 MaxDP=1.49D-01 DE= 7.99D-01 OVMax= 5.32D-01

 Cycle   5  Pass 0  IDiag  1:
 RMSU=  3.86D-03    CP:  1.01D+00  2.06D+00  3.73D-01  4.52D-01
 E= -489.237496123197     Delta-E=       -0.982873981799 Rises=F Damp=F
 DIIS: error= 2.81D-02 at cycle   5 NSaved=   5.
 NSaved= 5 IEnMin= 5 EnMin= -489.237496123197     IErMin= 2 ErrMin= 2.30D-02
 ErrMax= 2.81D-02  0.00D+00 EMaxC= 1.00D-01 BMatC= 5.80D-02 BMatP= 1.56D-01
 IDIUse=3 WtCom= 7.19D-01 WtEn= 2.81D-01
 Coeff-Com: -0.262D+00 0.401D+00 0.308D+00-0.101D+00 0.654D+00
 Coeff-En:   0.000D+00 0.000D+00 0.240D+00 0.000D+00 0.760D+00
 Coeff:     -0.188D+00 0.289D+00 0.289D+00-0.725D-01 0.684D+00
 Gap=     0.146 Goal=   None    Shift=    0.000
 RMSDP=2.45D-03 MaxDP=6.51D-02 DE=-9.83D-01 OVMax= 1.47D-01

 Cycle   6  Pass 0  IDiag  1:
 RMSU=  7.38D-04    CP:  1.01D+00  1.78D+00  6.08D-01  2.21D-01  8.37D-01
 E= -489.288412094672     Delta-E=       -0.050915971475 Rises=F Damp=F
 DIIS: error= 4.17D-03 at cycle   6 NSaved=   6.
 NSaved= 6 IEnMin= 6 EnMin= -489.288412094672     IErMin= 6 ErrMin= 4.17D-03
 ErrMax= 4.17D-03  0.00D+00 EMaxC= 1.00D-01 BMatC= 1.82D-03 BMatP= 5.80D-02
 IDIUse=3 WtCom= 9.58D-01 WtEn= 4.17D-02
 Coeff-Com: -0.281D-01 0.264D-01-0.498D-02-0.169D-01 0.169D+00 0.855D+00
 Coeff-En:   0.000D+00 0.000D+00 0.000D+00 0.000D+00 0.110D-01 0.989D+00
 Coeff:     -0.269D-01 0.253D-01-0.477D-02-0.162D-01 0.162D+00 0.860D+00
 Gap=     0.145 Goal=   None    Shift=    0.000
 RMSDP=6.28D-04 MaxDP=1.49D-02 DE=-5.09D-02 OVMax= 3.23D-02

 Cycle   7  Pass 0  IDiag  1:
 RMSU=  3.55D-04    CP:  1.01D+00  1.85D+00  5.75D-01  2.54D-01  9.23D-01
                    CP:  1.09D+00
 E= -489.290223391164     Delta-E=       -0.001811296493 Rises=F Damp=F
 DIIS: error= 1.58D-03 at cycle   7 NSaved=   7.
 NSaved= 7 IEnMin= 7 EnMin= -489.290223391164     IErMin= 7 ErrMin= 1.58D-03
 ErrMax= 1.58D-03  0.00D+00 EMaxC= 1.00D-01 BMatC= 3.10D-04 BMatP= 1.82D-03
 IDIUse=3 WtCom= 9.84D-01 WtEn= 1.58D-02
 Coeff-Com: -0.213D-02-0.424D-02-0.168D-01-0.449D-02 0.393D-01 0.476D+00
 Coeff-Com:  0.512D+00
 Coeff-En:   0.000D+00 0.000D+00 0.000D+00 0.000D+00 0.000D+00 0.587D-01
 Coeff-En:   0.941D+00
 Coeff:     -0.209D-02-0.417D-02-0.166D-01-0.442D-02 0.387D-01 0.470D+00
 Coeff:      0.519D+00
 Gap=     0.149 Goal=   None    Shift=    0.000
 RMSDP=1.95D-04 MaxDP=2.94D-03 DE=-1.81D-03 OVMax= 9.16D-03

 Cycle   8  Pass 0  IDiag  1:
 RMSU=  1.35D-04    CP:  1.01D+00  1.83D+00  5.83D-01  2.48D-01  9.20D-01
                    CP:  1.23D+00  1.03D+00
 E= -489.290602947474     Delta-E=       -0.000379556310 Rises=F Damp=F
 DIIS: error= 5.45D-04 at cycle   8 NSaved=   8.
 NSaved= 8 IEnMin= 8 EnMin= -489.290602947474     IErMin= 8 ErrMin= 5.45D-04
 ErrMax= 5.45D-04  0.00D+00 EMaxC= 1.00D-01 BMatC= 3.47D-05 BMatP= 3.10D-04
 IDIUse=3 WtCom= 9.95D-01 WtEn= 5.45D-03
 Coeff-Com: -0.494D-03 0.203D-02-0.538D-02-0.750D-03-0.278D-01 0.829D-02
 Coeff-Com:  0.247D+00 0.777D+00
 Coeff-En:   0.000D+00 0.000D+00 0.000D+00 0.000D+00 0.000D+00 0.000D+00
 Coeff-En:   0.000D+00 0.100D+01
 Coeff:     -0.491D-03 0.202D-02-0.535D-02-0.746D-03-0.277D-01 0.824D-02
 Coeff:      0.246D+00 0.778D+00
 Gap=     0.149 Goal=   None    Shift=    0.000
 RMSDP=1.78D-04 MaxDP=1.93D-03 DE=-3.80D-04 OVMax= 9.16D-03

 Cycle   9  Pass 0  IDiag  1:
 RMSU=  1.06D-04    CP:  1.01D+00  1.82D+00  5.86D-01  2.42D-01  9.22D-01
                    CP:  1.33D+00  1.34D+00  1.26D+00
 E= -489.290772331567     Delta-E=       -0.000169384092 Rises=F Damp=F
 DIIS: error= 4.54D-04 at cycle   9 NSaved=   9.
 NSaved= 9 IEnMin= 9 EnMin= -489.290772331567     IErMin= 9 ErrMin= 4.54D-04
 ErrMax= 4.54D-04  0.00D+00 EMaxC= 1.00D-01 BMatC= 1.32D-05 BMatP= 3.47D-05
 IDIUse=3 WtCom= 9.95D-01 WtEn= 4.54D-03
 Coeff-Com: -0.615D-03 0.301D-02-0.109D-02 0.814D-04-0.230D-01-0.108D+00
 Coeff-Com: -0.210D-01 0.433D+00 0.717D+00
 Coeff-En:   0.000D+00 0.000D+00 0.000D+00 0.000D+00 0.000D+00 0.000D+00
 Coeff-En:   0.000D+00 0.000D+00 0.100D+01
 Coeff:     -0.612D-03 0.300D-02-0.108D-02 0.810D-04-0.229D-01-0.107D+00
 Coeff:     -0.209D-01 0.431D+00 0.718D+00
 Gap=     0.149 Goal=   None    Shift=    0.000
 RMSDP=1.59D-04 MaxDP=1.72D-03 DE=-1.69D-04 OVMax= 8.60D-03

 Cycle  10  Pass 0  IDiag  1:
 RMSU=  5.24D-05    CP:  1.01D+00  1.82D+00  5.89D-01  2.37D-01  9.25D-01
                    CP:  1.41D+00  1.60D+00  1.75D+00  1.60D+00
 E= -489.290888686879     Delta-E=       -0.000116355312 Rises=F Damp=F
 DIIS: error= 5.17D-04 at cycle  10 NSaved=  10.
 NSaved=10 IEnMin=10 EnMin= -489.290888686879     IErMin= 9 ErrMin= 4.54D-04
 ErrMax= 5.17D-04  0.00D+00 EMaxC= 1.00D-01 BMatC= 9.40D-06 BMatP= 1.32D-05
 IDIUse=3 WtCom= 9.95D-01 WtEn= 4.54D-03
 Coeff-Com: -0.172D-02 0.233D-02-0.488D-03-0.149D-04 0.291D-02-0.485D-01
 Coeff-Com: -0.133D+00-0.154D-01 0.363D+00 0.831D+00
 Coeff-En:   0.000D+00 0.000D+00 0.000D+00 0.000D+00 0.000D+00 0.000D+00
 Coeff-En:   0.000D+00 0.000D+00 0.000D+00 0.100D+01
 Coeff:     -0.171D-02 0.232D-02-0.486D-03-0.148D-04 0.290D-02-0.483D-01
 Coeff:     -0.132D+00-0.154D-01 0.361D+00 0.831D+00
 Gap=     0.149 Goal=   None    Shift=    0.000
 RMSDP=1.67D-04 MaxDP=1.91D-03 DE=-1.16D-04 OVMax= 1.07D-02

 Cycle  11  Pass 0  IDiag  1:
 RMSU=  3.61D-05    CP:  1.01D+00  1.81D+00  5.89D-01  2.34D-01  9.25D-01
                    CP:  1.48D+00  1.85D+00  2.23D+00  2.50D+00  2.03D+00
 E= -489.291007749161     Delta-E=       -0.000119062282 Rises=F Damp=F
 DIIS: error= 5.08D-04 at cycle  11 NSaved=  11.
 NSaved=11 IEnMin=11 EnMin= -489.291007749161     IErMin= 9 ErrMin= 4.54D-04
 ErrMax= 5.08D-04  0.00D+00 EMaxC= 1.00D-01 BMatC= 6.36D-06 BMatP= 9.40D-06
 IDIUse=3 WtCom= 9.95D-01 WtEn= 4.54D-03
 Coeff-Com: -0.241D-02 0.334D-02-0.963D-03-0.288D-03 0.414D-02 0.778D-02
 Coeff-Com: -0.548D-01 0.305D-01-0.149D-01-0.121D+00 0.115D+01
 Coeff-En:   0.000D+00 0.000D+00 0.000D+00 0.000D+00 0.000D+00 0.000D+00
 Coeff-En:   0.000D+00 0.000D+00 0.000D+00 0.000D+00 0.100D+01
 Coeff:     -0.240D-02 0.332D-02-0.959D-03-0.286D-03 0.412D-02 0.775D-02
 Coeff:     -0.545D-01 0.304D-01-0.148D-01-0.120D+00 0.115D+01
 Gap=     0.149 Goal=   None    Shift=    0.000
 RMSDP=1.72D-04 MaxDP=2.04D-03 DE=-1.19D-04 OVMax= 1.13D-02

 Cycle  12  Pass 0  IDiag  1:
 RMSU=  5.75D-05    CP:  1.01D+00  1.81D+00  5.89D-01  2.30D-01  9.23D-01
                    CP:  1.54D+00  2.04D+00  2.66D+00  3.00D+00  3.00D+00
                    CP:  2.34D+00
 E= -489.291126659683     Delta-E=       -0.000118910522 Rises=F Damp=F
 DIIS: error= 5.08D-04 at cycle  12 NSaved=  12.
 NSaved=12 IEnMin=12 EnMin= -489.291126659683     IErMin= 9 ErrMin= 4.54D-04
 ErrMax= 5.08D-04  0.00D+00 EMaxC= 1.00D-01 BMatC= 6.27D-06 BMatP= 6.36D-06
 IDIUse=3 WtCom= 9.95D-01 WtEn= 4.54D-03
 Coeff-Com: -0.209D-02 0.309D-02-0.103D-02-0.308D-03 0.189D-02 0.543D-02
 Coeff-Com: -0.416D-01 0.828D-01-0.216D-01-0.227D+00 0.790D+00 0.411D+00
 Coeff-En:   0.000D+00 0.000D+00 0.000D+00 0.000D+00 0.000D+00 0.000D+00
 Coeff-En:   0.000D+00 0.000D+00 0.000D+00 0.000D+00 0.000D+00 0.100D+01
 Coeff:     -0.208D-02 0.308D-02-0.103D-02-0.307D-03 0.188D-02 0.541D-02
 Coeff:     -0.415D-01 0.825D-01-0.215D-01-0.226D+00 0.786D+00 0.413D+00
 Gap=     0.149 Goal=   None    Shift=    0.000
 RMSDP=6.55D-05 MaxDP=7.81D-04 DE=-1.19D-04 OVMax= 4.28D-03

 Cycle  13  Pass 0  IDiag  1:
 RMSU=  1.36D-05    CP:  1.01D+00  1.80D+00  5.90D-01  2.29D-01  9.21D-01
                    CP:  1.55D+00  2.11D+00  2.81D+00  3.00D+00  3.00D+00
                    CP:  2.97D+00  1.83D+00
 E= -489.291172170291     Delta-E=       -0.000045510608 Rises=F Damp=F
 DIIS: error= 5.17D-04 at cycle  13 NSaved=  13.
 NSaved=13 IEnMin=13 EnMin= -489.291172170291     IErMin= 9 ErrMin= 4.54D-04
 ErrMax= 5.17D-04  0.00D+00 EMaxC= 1.00D-01 BMatC= 6.25D-06 BMatP= 6.27D-06
 IDIUse=3 WtCom= 9.95D-01 WtEn= 4.54D-03
 Coeff-Com: -0.299D-02 0.437D-02-0.851D-03-0.423D-03 0.359D-02 0.158D-01
 Coeff-Com: -0.370D-01 0.501D-01-0.629D-01-0.330D+00 0.130D+01 0.137D+01
 Coeff-Com: -0.131D+01
 Coeff-En:   0.000D+00 0.000D+00 0.000D+00 0.000D+00 0.000D+00 0.000D+00
 Coeff-En:   0.000D+00 0.000D+00 0.000D+00 0.000D+00 0.000D+00 0.000D+00
 Coeff-En:   0.100D+01
 Coeff:     -0.298D-02 0.435D-02-0.847D-03-0.421D-03 0.358D-02 0.158D-01
 Coeff:     -0.368D-01 0.499D-01-0.626D-01-0.328D+00 0.129D+01 0.136D+01
 Coeff:     -0.129D+01
 Gap=     0.149 Goal=   None    Shift=    0.000
 RMSDP=1.15D-04 MaxDP=1.37D-03 DE=-4.55D-05 OVMax= 7.67D-03

 Cycle  14  Pass 0  IDiag  1:
 RMSU=  6.06D-06    CP:  1.01D+00  1.81D+00  5.89D-01  2.31D-01  9.23D-01
                    CP:  1.52D+00  2.00D+00  2.56D+00  3.00D+00  3.00D+00
                    CP:  1.83D+00  3.58D-01 -6.80D-01
 E= -489.291092964974     Delta-E=        0.000079205316 Rises=F Damp=F
 DIIS: error= 5.14D-04 at cycle  14 NSaved=  14.
 NSaved=14 IEnMin=13 EnMin= -489.291172170291     IErMin= 9 ErrMin= 4.54D-04
 ErrMax= 5.14D-04  0.00D+00 EMaxC= 1.00D-01 BMatC= 6.16D-06 BMatP= 6.25D-06
 IDIUse=3 WtCom= 9.95D-01 WtEn= 4.54D-03
 Large coefficients: NSaved= 14 BigCof=   13.11 CofMax=   10.00 Det=-2.94D-09
 Inversion failed.  Reducing to 13 matrices.
 Large coefficients: NSaved= 13 BigCof=   12.86 CofMax=   10.00 Det=-2.98D-09
 Inversion failed.  Reducing to 12 matrices.
 Large coefficients: NSaved= 12 BigCof=   10.86 CofMax=   10.00 Det=-3.38D-09
 Inversion failed.  Reducing to 11 matrices.
 Large coefficients: NSaved= 11 BigCof=   10.66 CofMax=   10.00 Det=-3.46D-09
 Inversion failed.  Reducing to 10 matrices.
 Rare condition: small coef for last iteration:  0.000D+00
 Coeff-Com:  0.227D-02 0.151D-01-0.680D-02 0.171D+00-0.131D+00-0.747D+00
 Coeff-Com:  0.235D+00 0.391D+01-0.929D+01 0.684D+01
 Coeff-En:   0.000D+00 0.000D+00 0.000D+00 0.000D+00 0.000D+00 0.000D+00
 Coeff-En:   0.000D+00 0.000D+00 0.000D+00 0.100D+01
 Coeff:      0.227D-02 0.151D-01-0.680D-02 0.171D+00-0.131D+00-0.747D+00
 Coeff:      0.235D+00 0.391D+01-0.929D+01 0.684D+01
 Gap=     0.149 Goal=   None    Shift=    0.000
 RMSDP=6.16D-04 MaxDP=7.29D-03 DE= 7.92D-05 OVMax= 4.26D-02

 Cycle  15  Pass 0  IDiag  1:
 RMSU=  1.29D-04    CP:  1.01D+00  1.83D+00  5.86D-01  2.46D-01  9.32D-01
                    CP:  1.37D+00  1.42D+00  1.26D+00  7.46D-02 -2.94D+00
                    CP: -3.00D+00 -6.97D-01  2.77D+00  3.00D+00
 E= -489.290693532227     Delta-E=        0.000399432748 Rises=F Damp=F
 DIIS: error= 5.05D-04 at cycle  15 NSaved=  11.
 NSaved=11 IEnMin= 9 EnMin= -489.291172170291     IErMin= 5 ErrMin= 4.54D-04
 ErrMax= 5.05D-04  0.00D+00 EMaxC= 1.00D-01 BMatC= 9.67D-06 BMatP= 6.16D-06
 IDIUse=3 WtCom= 9.95D-01 WtEn= 4.54D-03
 Large coefficients: NSaved= 11 BigCof=   20.40 CofMax=   10.00 Det=-2.43D-09
 Inversion failed.  Reducing to 10 matrices.
 Large coefficients: NSaved= 10 BigCof=   19.56 CofMax=   10.00 Det=-2.51D-09
 Inversion failed.  Reducing to  9 matrices.
 Large coefficients: NSaved=  9 BigCof=   15.74 CofMax=   10.00 Det=-3.65D-09
 Inversion failed.  Reducing to  8 matrices.
 Large coefficients: NSaved=  8 BigCof=   12.85 CofMax=   10.00 Det=-3.89D-09
 Inversion failed.  Reducing to  7 matrices.
 Large coefficients: NSaved=  7 BigCof=   15.04 CofMax=   10.00 Det=-3.96D-09
 Inversion failed.  Reducing to  6 matrices.
 Large coefficients: NSaved=  6 BigCof=   14.38 CofMax=   10.00 Det=-4.00D-09
 Inversion failed.  Reducing to  5 matrices.
 Large coefficients: NSaved=  5 BigCof=   11.86 CofMax=   10.00 Det=-4.39D-09
 Inversion failed.  Reducing to  4 matrices.
 Large coefficients: NSaved=  4 BigCof=   11.08 CofMax=   10.00 Det=-4.45D-09
 Inversion failed.  Reducing to  3 matrices.
 Rare condition: small coef for last iteration:  0.000D+00
 Coeff-Com: -0.340D+01 0.409D+01 0.307D+00
 Coeff-En:   0.000D+00 0.000D+00 0.100D+01
 Coeff:     -0.340D+01 0.409D+01 0.307D+00
 Gap=     0.150 Goal=   None    Shift=    0.000
 RMSDP=1.65D-04 MaxDP=1.86D-03 DE= 3.99D-04 OVMax= 1.09D-02

 Problem detected with inexpensive integrals.
 Switching to full accuracy and repeating last cycle.
 Cycle  16  Pass 1  IDiag  1:
 E= -489.290694826898     Delta-E=       -0.000001294671 Rises=F Damp=F
 DIIS: error= 5.05D-04 at cycle   1 NSaved=   1.
 NSaved= 1 IEnMin= 1 EnMin= -489.290694826898     IErMin= 1 ErrMin= 5.05D-04
 ErrMax= 5.05D-04  0.00D+00 EMaxC= 1.00D-01 BMatC= 9.71D-06 BMatP= 9.71D-06
 IDIUse=3 WtCom= 9.95D-01 WtEn= 5.05D-03
 Coeff-Com:  0.100D+01
 Coeff-En:   0.100D+01
 Coeff:      0.100D+01
 Gap=     0.150 Goal=   None    Shift=    0.000
 RMSDP=1.47D-04 MaxDP=1.89D-03 DE=-1.29D-06 OVMax= 8.34D-03

 Cycle  17  Pass 1  IDiag  1:
 RMSU=  1.47D-04    CP:  1.00D+00
 E= -489.290752730623     Delta-E=       -0.000057903726 Rises=F Damp=F
 DIIS: error= 7.26D-04 at cycle   2 NSaved=   2.
 NSaved= 2 IEnMin= 2 EnMin= -489.290752730623     IErMin= 1 ErrMin= 5.05D-04
 ErrMax= 7.26D-04  0.00D+00 EMaxC= 1.00D-01 BMatC= 2.88D-05 BMatP= 9.71D-06
 IDIUse=3 WtCom= 2.71D-01 WtEn= 7.29D-01
 Coeff-Com:  0.680D+00 0.320D+00
 Coeff-En:   0.000D+00 0.100D+01
 Coeff:      0.184D+00 0.816D+00
 Gap=     0.147 Goal=   None    Shift=    0.000
 RMSDP=1.66D-04 MaxDP=3.35D-03 DE=-5.79D-05 OVMax= 1.00D-02

 Cycle  18  Pass 1  IDiag  1:
 RMSU=  1.64D-04    CP:  1.00D+00  1.17D+00
 E= -489.290760949272     Delta-E=       -0.000008218648 Rises=F Damp=F
 DIIS: error= 1.06D-03 at cycle   3 NSaved=   3.
 NSaved= 3 IEnMin= 3 EnMin= -489.290760949272     IErMin= 1 ErrMin= 5.05D-04
 ErrMax= 1.06D-03  0.00D+00 EMaxC= 1.00D-01 BMatC= 9.11D-05 BMatP= 9.71D-06
 IDIUse=3 WtCom= 2.35D-01 WtEn= 7.65D-01
 Coeff-Com:  0.313D+00 0.491D+00 0.196D+00
 Coeff-En:   0.000D+00 0.464D+00 0.536D+00
 Coeff:      0.736D-01 0.470D+00 0.457D+00
 Gap=     0.150 Goal=   None    Shift=    0.000
 RMSDP=1.55D-04 MaxDP=3.02D-03 DE=-8.22D-06 OVMax= 1.02D-02

 Cycle  19  Pass 1  IDiag  1:
 RMSU=  5.27D-05    CP:  1.00D+00  1.98D+00  4.90D-01
 E= -489.290847211124     Delta-E=       -0.000086261853 Rises=F Damp=F
 DIIS: error= 8.02D-04 at cycle   4 NSaved=   4.
 NSaved= 4 IEnMin= 4 EnMin= -489.290847211124     IErMin= 1 ErrMin= 5.05D-04
 ErrMax= 8.02D-04  0.00D+00 EMaxC= 1.00D-01 BMatC= 4.65D-05 BMatP= 9.71D-06
 IDIUse=3 WtCom= 2.61D-01 WtEn= 7.39D-01
 Coeff-Com:  0.426D+00 0.502D+00 0.139D+00-0.665D-01
 Coeff-En:   0.000D+00 0.000D+00 0.222D+00 0.778D+00
 Coeff:      0.111D+00 0.131D+00 0.200D+00 0.558D+00
 Gap=     0.148 Goal=   None    Shift=    0.000
 RMSDP=1.27D-04 MaxDP=3.41D-03 DE=-8.63D-05 OVMax= 6.53D-03

 Cycle  20  Pass 1  IDiag  1:
 RMSU=  1.95D-05    CP:  1.00D+00  2.05D+00  1.18D+00 -2.44D-02
 E= -489.290886628105     Delta-E=       -0.000039416980 Rises=F Damp=F
 DIIS: error= 7.76D-04 at cycle   5 NSaved=   5.
 NSaved= 5 IEnMin= 5 EnMin= -489.290886628105     IErMin= 1 ErrMin= 5.05D-04
 ErrMax= 7.76D-04  0.00D+00 EMaxC= 1.00D-01 BMatC= 4.69D-05 BMatP= 9.71D-06
 IDIUse=3 WtCom= 2.64D-01 WtEn= 7.36D-01
 Coeff-Com:  0.116D+01 0.143D+01 0.326D+00-0.110D+01-0.818D+00
 Coeff-En:   0.000D+00 0.000D+00 0.000D+00 0.310D+00 0.690D+00
 Coeff:      0.305D+00 0.378D+00 0.860D-01-0.614D-01 0.292D+00
 Gap=     0.150 Goal=   None    Shift=    0.000
 RMSDP=1.29D-04 MaxDP=3.40D-03 DE=-3.94D-05 OVMax= 6.97D-03

 Cycle  21  Pass 1  IDiag  1:
 RMSU=  5.09D-06    CP:  1.00D+00  1.88D+00  5.18D-01  1.09D+00 -3.40D-01
 E= -489.290844692561     Delta-E=        0.000041935544 Rises=F Damp=F
 DIIS: error= 7.36D-04 at cycle   6 NSaved=   6.
 NSaved= 6 IEnMin= 5 EnMin= -489.290886628105     IErMin= 1 ErrMin= 5.05D-04
 ErrMax= 7.36D-04  0.00D+00 EMaxC= 1.00D-01 BMatC= 4.42D-05 BMatP= 9.71D-06
 IDIUse=3 WtCom= 2.69D-01 WtEn= 7.31D-01
 Rare condition: small coef for last iteration:  0.000D+00
 Coeff-Com:  0.644D+00 0.411D+01 0.406D+01 0.264D+01-0.515D+01-0.530D+01
 Coeff-En:   0.000D+00 0.000D+00 0.000D+00 0.850D-01 0.660D+00 0.255D+00
 Coeff:      0.644D+00 0.411D+01 0.406D+01 0.264D+01-0.515D+01-0.530D+01
 Gap=     0.149 Goal=   None    Shift=    0.000
 RMSDP=1.31D-03 MaxDP=1.48D-02 DE= 4.19D-05 OVMax= 9.40D-02

 Cycle  22  Pass 1  IDiag  1:
 RMSU=  4.32D-04    CP:  1.00D+00 -3.00D+00 -3.00D+00 -2.48D+00 -2.64D+00
                    CP: -3.00D+00
 E= -489.290171363316     Delta-E=        0.000673329244 Rises=F Damp=F
 DIIS: error= 4.57D-04 at cycle   7 NSaved=   7.
 NSaved= 7 IEnMin= 5 EnMin= -489.290886628105     IErMin= 7 ErrMin= 4.57D-04
 ErrMax= 4.57D-04  0.00D+00 EMaxC= 1.00D-01 BMatC= 2.07D-05 BMatP= 9.71D-06
 IDIUse=3 WtCom= 3.19D-01 WtEn= 6.81D-01
 EnCoef did   100 forward-backward iterations
 Rare condition: small coef for last iteration:  0.000D+00
 Coeff-Com: -0.597D+00 0.418D+01 0.487D+01 0.443D+01-0.563D+01-0.672D+01
 Coeff-Com:  0.458D+00
 Coeff-En:   0.000D+00 0.000D+00 0.000D+00 0.000D+00 0.000D+00 0.000D+00
 Coeff-En:   0.100D+01
 Coeff:     -0.597D+00 0.418D+01 0.487D+01 0.443D+01-0.563D+01-0.672D+01
 Coeff:      0.458D+00
 Gap=     0.152 Goal=   None    Shift=    0.000
 RMSDP=3.27D-04 MaxDP=3.47D-03 DE= 6.73D-04 OVMax= 2.53D-02

 Cycle  23  Pass 1  IDiag  1:
 RMSU=  1.62D-04    CP:  9.99D-01 -3.00D+00 -3.00D+00 -3.00D+00 -3.00D+00
                    CP: -3.00D+00  1.65D+00
 E= -489.290060684262     Delta-E=        0.000110679054 Rises=F Damp=F
 DIIS: error= 5.27D-04 at cycle   8 NSaved=   8.
 NSaved= 8 IEnMin= 5 EnMin= -489.290886628105     IErMin= 7 ErrMin= 4.57D-04
 ErrMax= 5.27D-04  0.00D+00 EMaxC= 1.00D-01 BMatC= 2.61D-05 BMatP= 9.71D-06
 IDIUse=3 WtCom= 3.19D-01 WtEn= 6.81D-01
 Rare condition: small coef for last iteration:  0.000D+00
 Coeff-Com: -0.128D+01 0.346D+01 0.420D+01 0.431D+01-0.449D+01-0.580D+01
 Coeff-Com: -0.679D+00 0.129D+01
 Coeff-En:   0.000D+00 0.000D+00 0.000D+00 0.000D+00 0.000D+00 0.000D+00
 Coeff-En:   0.000D+00 0.100D+01
 Coeff:     -0.128D+01 0.346D+01 0.420D+01 0.431D+01-0.449D+01-0.580D+01
 Coeff:     -0.679D+00 0.129D+01
 Gap=     0.151 Goal=   None    Shift=    0.000
 RMSDP=2.27D-04 MaxDP=2.51D-03 DE= 1.11D-04 OVMax= 1.86D-02

 Cycle  24  Pass 1  IDiag  1:
 RMSU=  5.43D-05    CP:  9.99D-01 -3.00D+00 -3.00D+00 -3.00D+00 -3.00D+00
                    CP: -3.00D+00  2.03D+00  1.91D+00
 E= -489.290045198425     Delta-E=        0.000015485837 Rises=F Damp=F
 DIIS: error= 3.65D-04 at cycle   9 NSaved=   9.
 NSaved= 9 IEnMin= 5 EnMin= -489.290886628105     IErMin= 9 ErrMin= 3.65D-04
 ErrMax= 3.65D-04  0.00D+00 EMaxC= 1.00D-01 BMatC= 1.05D-05 BMatP= 9.71D-06
 IDIUse=3 WtCom= 9.96D-01 WtEn= 3.65D-03
 Rare condition: small coef for last iteration:  0.000D+00
 Coeff-Com: -0.115D+01 0.127D+01 0.211D+01 0.265D+01-0.175D+01-0.279D+01
 Coeff-Com: -0.140D+01 0.605D+00 0.147D+01
 Coeff-En:   0.000D+00 0.000D+00 0.000D+00 0.000D+00 0.000D+00 0.000D+00
 Coeff-En:   0.000D+00 0.000D+00 0.100D+01
 Coeff:     -0.115D+01 0.127D+01 0.211D+01 0.265D+01-0.175D+01-0.279D+01
 Coeff:     -0.140D+01 0.605D+00 0.147D+01
 Gap=     0.147 Goal=   None    Shift=    0.000
 RMSDP=1.76D-04 MaxDP=1.90D-03 DE= 1.55D-05 OVMax= 1.18D-02

 Cycle  25  Pass 1  IDiag  1:
 RMSU=  4.48D-05    CP:  9.99D-01 -3.00D+00 -3.00D+00 -3.00D+00 -3.00D+00
                    CP: -3.00D+00  2.10D+00  2.68D+00  3.00D+00
 E= -489.290075847023     Delta-E=       -0.000030648597 Rises=F Damp=F
 DIIS: error= 2.60D-04 at cycle  10 NSaved=  10.
 NSaved=10 IEnMin= 5 EnMin= -489.290886628105     IErMin=10 ErrMin= 2.60D-04
 ErrMax= 2.60D-04  0.00D+00 EMaxC= 1.00D-01 BMatC= 3.48D-06 BMatP= 9.71D-06
 IDIUse=3 WtCom= 9.97D-01 WtEn= 2.60D-03
 Coeff-Com: -0.256D+00-0.269D+00 0.129D+00 0.504D+00 0.116D+00-0.269D+00
 Coeff-Com:  0.224D-02-0.108D+00 0.321D+00 0.830D+00
 Coeff-En:   0.000D+00 0.000D+00 0.000D+00 0.000D+00 0.000D+00 0.000D+00
 Coeff-En:   0.000D+00 0.000D+00 0.000D+00 0.100D+01
 Coeff:     -0.255D+00-0.269D+00 0.128D+00 0.503D+00 0.116D+00-0.268D+00
 Coeff:      0.224D-02-0.108D+00 0.320D+00 0.830D+00
 Gap=     0.147 Goal=   None    Shift=    0.000
 RMSDP=7.68D-05 MaxDP=1.32D-03 DE=-3.06D-05 OVMax= 4.96D-03

 Cycle  26  Pass 1  IDiag  1:
 RMSU=  3.63D-05    CP:  9.99D-01 -3.00D+00 -3.00D+00 -3.00D+00 -3.00D+00
                    CP: -3.00D+00  1.98D+00  2.54D+00  3.00D+00  1.77D+00
 E= -489.290098794728     Delta-E=       -0.000022947706 Rises=F Damp=F
 DIIS: error= 2.53D-04 at cycle  11 NSaved=  11.
 NSaved=11 IEnMin= 5 EnMin= -489.290886628105     IErMin=11 ErrMin= 2.53D-04
 ErrMax= 2.53D-04  0.00D+00 EMaxC= 1.00D-01 BMatC= 2.35D-06 BMatP= 3.48D-06
 IDIUse=3 WtCom= 9.97D-01 WtEn= 2.53D-03
 Coeff-Com: -0.572D+00-0.349D+00-0.372D-01 0.632D+00 0.243D+00-0.297D+00
 Coeff-Com:  0.230D+00 0.962D+00-0.117D+01-0.368D-01 0.139D+01
 Coeff-En:   0.000D+00 0.000D+00 0.000D+00 0.000D+00 0.000D+00 0.000D+00
 Coeff-En:   0.000D+00 0.000D+00 0.000D+00 0.000D+00 0.100D+01
 Coeff:     -0.571D+00-0.348D+00-0.371D-01 0.630D+00 0.242D+00-0.297D+00
 Coeff:      0.230D+00 0.959D+00-0.117D+01-0.367D-01 0.139D+01
 Gap=     0.147 Goal=   None    Shift=    0.000
 RMSDP=1.38D-04 MaxDP=1.66D-03 DE=-2.29D-05 OVMax= 1.17D-02

 Cycle  27  Pass 1  IDiag  1:
 RMSU=  2.36D-05    CP:  9.99D-01 -3.00D+00 -3.00D+00 -3.00D+00 -3.00D+00
                    CP: -3.00D+00  2.22D+00  2.86D+00  3.00D+00  2.71D+00
                    CP:  2.52D+00
 E= -489.290101656848     Delta-E=       -0.000002862119 Rises=F Damp=F
 DIIS: error= 3.10D-04 at cycle  12 NSaved=  12.
 NSaved=12 IEnMin= 5 EnMin= -489.290886628105     IErMin=11 ErrMin= 2.53D-04
 ErrMax= 3.10D-04  0.00D+00 EMaxC= 1.00D-01 BMatC= 2.48D-06 BMatP= 2.35D-06
 IDIUse=3 WtCom= 9.97D-01 WtEn= 2.53D-03
 Coeff-Com: -0.238D-02 0.716D-01-0.205D+00-0.216D+00 0.831D-01 0.157D+00
 Coeff-Com: -0.168D+00 0.767D+00-0.991D+00-0.575D+00 0.104D+01 0.104D+01
 Coeff-En:   0.000D+00 0.000D+00 0.000D+00 0.000D+00 0.000D+00 0.000D+00
 Coeff-En:   0.000D+00 0.000D+00 0.000D+00 0.000D+00 0.000D+00 0.100D+01
 Coeff:     -0.238D-02 0.714D-01-0.205D+00-0.216D+00 0.829D-01 0.157D+00
 Coeff:     -0.168D+00 0.765D+00-0.989D+00-0.574D+00 0.104D+01 0.104D+01
 Gap=     0.147 Goal=   None    Shift=    0.000
 RMSDP=1.71D-04 MaxDP=1.90D-03 DE=-2.86D-06 OVMax= 1.30D-02

 Cycle  28  Pass 1  IDiag  1:
 RMSU=  1.23D-04    CP:  9.99D-01 -3.00D+00 -3.00D+00 -3.00D+00 -3.00D+00
                    CP: -3.00D+00  2.38D+00  3.00D+00  3.00D+00  3.00D+00
                    CP:  3.00D+00  2.40D+00
 E= -489.290129571082     Delta-E=       -0.000027914234 Rises=F Damp=F
 DIIS: error= 2.94D-04 at cycle  13 NSaved=  13.
 NSaved=13 IEnMin= 5 EnMin= -489.290886628105     IErMin=11 ErrMin= 2.53D-04
 ErrMax= 2.94D-04  0.00D+00 EMaxC= 1.00D-01 BMatC= 3.35D-06 BMatP= 2.35D-06
 IDIUse=3 WtCom= 9.97D-01 WtEn= 2.53D-03
 Coeff-Com:  0.392D+00 0.149D+01 0.148D+01 0.882D+00-0.188D+01-0.175D+01
 Coeff-Com: -0.291D+00-0.993D+00 0.840D+00 0.301D+00-0.103D+01-0.522D+00
 Coeff-Com:  0.207D+01
 Coeff-En:   0.000D+00 0.000D+00 0.000D+00 0.000D+00 0.000D+00 0.000D+00
 Coeff-En:   0.000D+00 0.000D+00 0.000D+00 0.000D+00 0.000D+00 0.000D+00
 Coeff-En:   0.100D+01
 Coeff:      0.391D+00 0.148D+01 0.148D+01 0.880D+00-0.187D+01-0.174D+01
 Coeff:     -0.290D+00-0.990D+00 0.838D+00 0.300D+00-0.103D+01-0.520D+00
 Coeff:      0.207D+01
 Gap=     0.146 Goal=   None    Shift=    0.000
 RMSDP=2.32D-04 MaxDP=4.31D-03 DE=-2.79D-05 OVMax= 1.53D-02

 Cycle  29  Pass 1  IDiag  1:
 RMSU=  7.42D-05    CP:  9.99D-01 -3.00D+00 -3.00D+00 -3.00D+00 -3.00D+00
                    CP: -3.00D+00  2.20D+00  3.00D+00  3.00D+00  3.00D+00
                    CP:  3.00D+00  3.00D+00  2.65D+00
 E= -489.290192619616     Delta-E=       -0.000063048534 Rises=F Damp=F
 DIIS: error= 2.43D-04 at cycle  14 NSaved=  14.
 NSaved=14 IEnMin= 5 EnMin= -489.290886628105     IErMin=14 ErrMin= 2.43D-04
 ErrMax= 2.43D-04  0.00D+00 EMaxC= 1.00D-01 BMatC= 1.78D-06 BMatP= 2.35D-06
 IDIUse=3 WtCom= 9.98D-01 WtEn= 2.43D-03
 Coeff-Com: -0.690D+00 0.209D+01 0.304D+01 0.353D+01-0.314D+01-0.427D+01
 Coeff-Com: -0.198D+00 0.767D-01-0.591D-01 0.634D+00-0.189D+01-0.707D+00
 Coeff-Com:  0.131D+01 0.129D+01
 Coeff-En:   0.000D+00 0.000D+00 0.000D+00 0.000D+00 0.000D+00 0.000D+00
 Coeff-En:   0.000D+00 0.000D+00 0.000D+00 0.000D+00 0.000D+00 0.000D+00
 Coeff-En:   0.000D+00 0.100D+01
 Coeff:     -0.688D+00 0.209D+01 0.304D+01 0.352D+01-0.314D+01-0.426D+01
 Coeff:     -0.197D+00 0.765D-01-0.590D-01 0.632D+00-0.189D+01-0.706D+00
 Coeff:      0.131D+01 0.129D+01
 Gap=     0.145 Goal=   None    Shift=    0.000
 RMSDP=3.32D-04 MaxDP=6.33D-03 DE=-6.30D-05 OVMax= 2.48D-02

 Cycle  30  Pass 1  IDiag  1:
 RMSU=  1.77D-04    CP:  9.99D-01 -3.00D+00 -3.00D+00 -3.00D+00 -3.00D+00
                    CP: -3.00D+00  1.80D+00  3.00D+00  3.00D+00  3.00D+00
                    CP:  3.00D+00  3.00D+00  3.00D+00  3.00D+00
 E= -489.290259897092     Delta-E=       -0.000067277476 Rises=F Damp=F
 DIIS: error= 3.19D-04 at cycle  15 NSaved=  15.
 NSaved=15 IEnMin= 5 EnMin= -489.290886628105     IErMin=14 ErrMin= 2.43D-04
 ErrMax= 3.19D-04  0.00D+00 EMaxC= 1.00D-01 BMatC= 3.39D-06 BMatP= 1.78D-06
 IDIUse=3 WtCom= 9.98D-01 WtEn= 2.43D-03
 Coeff-Com: -0.324D+00 0.120D+01 0.169D+01 0.208D+01-0.178D+01-0.254D+01
 Coeff-Com: -0.496D+00 0.561D+00-0.313D+00 0.883D+00-0.151D+01-0.650D-01
 Coeff-Com:  0.113D+01-0.111D+01 0.159D+01
 Coeff-En:   0.000D+00 0.000D+00 0.000D+00 0.000D+00 0.000D+00 0.000D+00
 Coeff-En:   0.000D+00 0.000D+00 0.000D+00 0.000D+00 0.000D+00 0.000D+00
 Coeff-En:   0.000D+00 0.000D+00 0.100D+01
 Coeff:     -0.323D+00 0.120D+01 0.169D+01 0.207D+01-0.178D+01-0.253D+01
 Coeff:     -0.495D+00 0.560D+00-0.312D+00 0.881D+00-0.151D+01-0.649D-01
 Coeff:      0.113D+01-0.110D+01 0.159D+01
 Gap=     0.145 Goal=   None    Shift=    0.000
 RMSDP=1.62D-04 MaxDP=2.92D-03 DE=-6.73D-05 OVMax= 1.29D-02

 Cycle  31  Pass 1  IDiag  1:
 RMSU=  9.49D-05    CP:  9.99D-01 -3.00D+00 -3.00D+00 -3.00D+00 -3.00D+00
                    CP: -3.00D+00  1.71D+00  3.00D+00  3.00D+00  3.00D+00
                    CP:  3.00D+00  3.00D+00  3.00D+00  3.00D+00  1.70D+00
 E= -489.290294907637     Delta-E=       -0.000035010544 Rises=F Damp=F
 DIIS: error= 1.71D-04 at cycle  16 NSaved=  16.
 NSaved=16 IEnMin= 5 EnMin= -489.290886628105     IErMin=16 ErrMin= 1.71D-04
 ErrMax= 1.71D-04  0.00D+00 EMaxC= 1.00D-01 BMatC= 7.58D-07 BMatP= 1.78D-06
 IDIUse=3 WtCom= 9.98D-01 WtEn= 1.71D-03
 Coeff-Com:  0.758D+00-0.790D+00-0.148D+01-0.200D+01 0.133D+01 0.215D+01
 Coeff-Com: -0.351D+00-0.269D+00 0.565D+00 0.467D+00 0.205D+00 0.323D+00
 Coeff-Com:  0.603D-01-0.301D+01 0.141D+01 0.163D+01
 Coeff-En:   0.000D+00 0.000D+00 0.000D+00 0.000D+00 0.000D+00 0.000D+00
 Coeff-En:   0.000D+00 0.000D+00 0.000D+00 0.000D+00 0.000D+00 0.000D+00
 Coeff-En:   0.000D+00 0.000D+00 0.000D+00 0.100D+01
 Coeff:      0.757D+00-0.788D+00-0.148D+01-0.199D+01 0.133D+01 0.215D+01
 Coeff:     -0.350D+00-0.269D+00 0.564D+00 0.466D+00 0.204D+00 0.323D+00
 Coeff:      0.602D-01-0.300D+01 0.141D+01 0.163D+01
 Gap=     0.145 Goal=   None    Shift=    0.000
 RMSDP=4.04D-04 MaxDP=7.45D-03 DE=-3.50D-05 OVMax= 3.13D-02

 Cycle  32  Pass 1  IDiag  1:
 RMSU=  6.63D-05    CP:  9.99D-01 -3.00D+00 -3.00D+00 -3.00D+00 -3.00D+00
                    CP: -3.00D+00  1.25D+00  2.77D+00  3.00D+00  3.00D+00
                    CP:  3.00D+00  3.00D+00  3.00D+00  3.00D+00  3.00D+00
                    CP:  3.00D+00
 E= -489.290346779828     Delta-E=       -0.000051872191 Rises=F Damp=F
 DIIS: error= 1.09D-04 at cycle  17 NSaved=  17.
 NSaved=17 IEnMin= 5 EnMin= -489.290886628105     IErMin=17 ErrMin= 1.09D-04
 ErrMax= 1.09D-04  0.00D+00 EMaxC= 1.00D-01 BMatC= 4.75D-07 BMatP= 7.58D-07
 IDIUse=3 WtCom= 9.99D-01 WtEn= 1.09D-03
 Coeff-Com:  0.202D-01-0.818D-01-0.533D-01-0.195D+00 0.343D-01 0.230D+00
 Coeff-Com:  0.167D+00-0.647D+00 0.612D+00-0.341D+00 0.607D+00-0.241D+00
 Coeff-Com: -0.403D+00 0.209D+00-0.653D+00 0.355D+00 0.138D+01
 Coeff-En:   0.000D+00 0.000D+00 0.000D+00 0.000D+00 0.000D+00 0.000D+00
 Coeff-En:   0.000D+00 0.000D+00 0.000D+00 0.000D+00 0.000D+00 0.000D+00
 Coeff-En:   0.000D+00 0.000D+00 0.000D+00 0.000D+00 0.100D+01
 Coeff:      0.202D-01-0.817D-01-0.533D-01-0.195D+00 0.343D-01 0.230D+00
 Coeff:      0.167D+00-0.646D+00 0.611D+00-0.341D+00 0.607D+00-0.241D+00
 Coeff:     -0.402D+00 0.209D+00-0.652D+00 0.355D+00 0.138D+01
 Gap=     0.145 Goal=   None    Shift=    0.000
 RMSDP=3.23D-04 MaxDP=5.99D-03 DE=-5.19D-05 OVMax= 2.43D-02

 Cycle  33  Pass 1  IDiag  1:
 RMSU=  2.09D-04    CP:  9.98D-01 -3.00D+00 -3.00D+00 -3.00D+00 -3.00D+00
                    CP: -3.00D+00  1.02D+00  2.71D+00  3.00D+00  3.00D+00
                    CP:  3.00D+00  3.00D+00  3.00D+00  3.00D+00  3.00D+00
                    CP:  3.00D+00  3.00D+00
 E= -489.290364747885     Delta-E=       -0.000017968057 Rises=F Damp=F
 DIIS: error= 1.04D-04 at cycle  18 NSaved=  18.
 NSaved=18 IEnMin= 5 EnMin= -489.290886628105     IErMin=18 ErrMin= 1.04D-04
 ErrMax= 1.04D-04  0.00D+00 EMaxC= 1.00D-01 BMatC= 1.04D-06 BMatP= 4.75D-07
 IDIUse=3 WtCom= 9.99D-01 WtEn= 1.09D-03
 Coeff-Com:  0.121D-01 0.106D+01 0.128D+01 0.121D+01-0.150D+01-0.184D+01
 Coeff-Com: -0.283D-01-0.106D+00-0.279D+00-0.104D-01 0.120D+00-0.284D+00
 Coeff-Com:  0.641D+00 0.466D+00-0.624D+00-0.485D+00 0.398D+00 0.981D+00
 Coeff-En:   0.000D+00 0.000D+00 0.000D+00 0.000D+00 0.000D+00 0.000D+00
 Coeff-En:   0.000D+00 0.000D+00 0.000D+00 0.000D+00 0.000D+00 0.000D+00
 Coeff-En:   0.000D+00 0.000D+00 0.000D+00 0.000D+00 0.000D+00 0.100D+01
 Coeff:      0.121D-01 0.106D+01 0.127D+01 0.121D+01-0.150D+01-0.184D+01
 Coeff:     -0.282D-01-0.106D+00-0.279D+00-0.103D-01 0.120D+00-0.284D+00
 Coeff:      0.640D+00 0.466D+00-0.623D+00-0.485D+00 0.398D+00 0.981D+00
 Gap=     0.145 Goal=   None    Shift=    0.000
 RMSDP=1.33D-04 MaxDP=2.64D-03 DE=-1.80D-05 OVMax= 7.88D-03

 Cycle  34  Pass 1  IDiag  1:
 RMSU=  5.02D-05    CP:  9.98D-01 -3.00D+00 -3.00D+00 -3.00D+00 -3.00D+00
                    CP: -3.00D+00  1.26D+00  2.86D+00  3.00D+00  3.00D+00
                    CP:  3.00D+00  3.00D+00  3.00D+00  3.00D+00  3.00D+00
                    CP:  3.00D+00  3.00D+00  6.90D-01
 E= -489.290357796466     Delta-E=        0.000006951419 Rises=F Damp=F
 DIIS: error= 3.19D-04 at cycle  19 NSaved=  19.
 NSaved=19 IEnMin= 5 EnMin= -489.290886628105     IErMin=18 ErrMin= 1.04D-04
 ErrMax= 3.19D-04  0.00D+00 EMaxC= 1.00D-01 BMatC= 5.50D-06 BMatP= 4.75D-07
 IDIUse=3 WtCom= 9.99D-01 WtEn= 1.09D-03
 Rare condition: small coef for last iteration:  0.000D+00
 Coeff-Com: -0.256D+00 0.399D+00 0.594D+00 0.855D+00-0.583D+00-0.980D+00
 Coeff-Com: -0.296D-01 0.549D+00-0.716D+00-0.257D-01 0.179D+00-0.337D-01
 Coeff-Com: -0.260D+00 0.732D+00-0.500D-01-0.635D+00-0.199D-01 0.736D+00
 Coeff-Com:  0.544D+00
 Coeff-En:   0.000D+00 0.000D+00 0.000D+00 0.000D+00 0.000D+00 0.000D+00
 Coeff-En:   0.000D+00 0.000D+00 0.000D+00 0.000D+00 0.000D+00 0.000D+00
 Coeff-En:   0.000D+00 0.000D+00 0.000D+00 0.000D+00 0.000D+00 0.000D+00
 Coeff-En:   0.100D+01
 Coeff:     -0.256D+00 0.399D+00 0.594D+00 0.855D+00-0.583D+00-0.980D+00
 Coeff:     -0.296D-01 0.549D+00-0.716D+00-0.257D-01 0.179D+00-0.337D-01
 Coeff:     -0.260D+00 0.732D+00-0.500D-01-0.635D+00-0.199D-01 0.736D+00
 Coeff:      0.544D+00
 Gap=     0.145 Goal=   None    Shift=    0.000
 RMSDP=1.81D-04 MaxDP=3.43D-03 DE= 6.95D-06 OVMax= 1.17D-02

 Cycle  35  Pass 1  IDiag  1:
 RMSU=  1.97D-05    CP:  9.98D-01 -3.00D+00 -3.00D+00 -3.00D+00 -3.00D+00
                    CP: -3.00D+00  9.42D-01  2.62D+00  3.00D+00  3.00D+00
                    CP:  3.00D+00  3.00D+00  3.00D+00  3.00D+00  3.00D+00
                    CP:  3.00D+00  3.00D+00  1.16D+00 -2.83D-02
 E= -489.290366131839     Delta-E=       -0.000008335374 Rises=F Damp=F
 DIIS: error= 3.74D-05 at cycle  20 NSaved=  20.
 NSaved=20 IEnMin= 5 EnMin= -489.290886628105     IErMin=20 ErrMin= 3.74D-05
 ErrMax= 3.74D-05  0.00D+00 EMaxC= 1.00D-01 BMatC= 7.45D-08 BMatP= 4.75D-07
 IDIUse=1 WtCom= 1.00D+00 WtEn= 0.00D+00
 Coeff-Com: -0.119D+00 0.177D+00 0.282D+00 0.360D+00-0.264D+00-0.391D+00
 Coeff-Com:  0.395D-01 0.995D-01-0.180D+00 0.269D-02-0.998D-01-0.634D-01
 Coeff-Com:  0.685D-01 0.394D+00-0.197D+00-0.267D+00 0.139D+00-0.904D-01
 Coeff-Com:  0.597D-01 0.105D+01
 Coeff:     -0.119D+00 0.177D+00 0.282D+00 0.360D+00-0.264D+00-0.391D+00
 Coeff:      0.395D-01 0.995D-01-0.180D+00 0.269D-02-0.998D-01-0.634D-01
 Coeff:      0.685D-01 0.394D+00-0.197D+00-0.267D+00 0.139D+00-0.904D-01
 Coeff:      0.597D-01 0.105D+01
 Gap=     0.144 Goal=   None    Shift=    0.000
 RMSDP=5.49D-05 MaxDP=6.41D-04 DE=-8.34D-06 OVMax= 4.44D-03

 Cycle  36  Pass 1  IDiag  1:
 Restarting incremental Fock formation.
 E= -489.290365333145     Delta-E=        0.000000798694 Rises=F Damp=F
 DIIS: error= 8.90D-05 at cycle  21 NSaved=  20.
 NSaved=20 IEnMin= 5 EnMin= -489.290886628105     IErMin=19 ErrMin= 3.74D-05
 ErrMax= 8.90D-05  0.00D+00 EMaxC= 1.00D-01 BMatC= 4.29D-07 BMatP= 7.45D-08
 IDIUse=1 WtCom= 1.00D+00 WtEn= 0.00D+00
 Coeff-Com: -0.548D-01 0.156D+00 0.229D+00 0.238D+00-0.235D+00-0.292D+00
 Coeff-Com:  0.415D-01-0.526D-01-0.291D-01-0.862D-01-0.802D-01 0.123D+00
 Coeff-Com:  0.270D+00-0.219D+00-0.157D+00 0.177D+00 0.255D-01 0.998D-01
 Coeff-Com:  0.155D+00 0.692D+00
 Coeff:     -0.548D-01 0.156D+00 0.229D+00 0.238D+00-0.235D+00-0.292D+00
 Coeff:      0.415D-01-0.526D-01-0.291D-01-0.862D-01-0.802D-01 0.123D+00
 Coeff:      0.270D+00-0.219D+00-0.157D+00 0.177D+00 0.255D-01 0.998D-01
 Coeff:      0.155D+00 0.692D+00
 Gap=     0.145 Goal=   None    Shift=    0.000
 RMSDP=1.46D-05 MaxDP=1.91D-04 DE= 7.99D-07 OVMax= 1.01D-03

 Cycle  37  Pass 1  IDiag  1:
 RMSU=  1.46D-05    CP:  1.00D+00
 E= -489.290365861091     Delta-E=       -0.000000527946 Rises=F Damp=F
 DIIS: error= 3.83D-05 at cycle  22 NSaved=  20.
 NSaved=20 IEnMin= 5 EnMin= -489.290886628105     IErMin=18 ErrMin= 3.74D-05
 ErrMax= 3.83D-05  0.00D+00 EMaxC= 1.00D-01 BMatC= 6.38D-08 BMatP= 7.45D-08
 IDIUse=1 WtCom= 1.00D+00 WtEn= 0.00D+00
 Coeff-Com:  0.155D-02 0.422D-01 0.577D-01 0.671D-01-0.618D-01-0.899D-01
 Coeff-Com: -0.452D-02 0.413D-01-0.839D-01-0.303D-01 0.386D-01 0.292D-01
 Coeff-Com:  0.302D-01-0.258D-01-0.621D-01 0.291D-01 0.746D-01-0.381D+00
 Coeff-Com: -0.327D+00 0.165D+01
 Coeff:      0.155D-02 0.422D-01 0.577D-01 0.671D-01-0.618D-01-0.899D-01
 Coeff:     -0.452D-02 0.413D-01-0.839D-01-0.303D-01 0.386D-01 0.292D-01
 Coeff:      0.302D-01-0.258D-01-0.621D-01 0.291D-01 0.746D-01-0.381D+00
 Coeff:     -0.327D+00 0.165D+01
 Gap=     0.145 Goal=   None    Shift=    0.000
 RMSDP=6.64D-06 MaxDP=9.49D-05 DE=-5.28D-07 OVMax= 4.91D-04

 Cycle  38  Pass 1  IDiag  1:
 RMSU=  6.51D-06    CP:  1.00D+00  9.13D-01
 E= -489.290365962894     Delta-E=       -0.000000101803 Rises=F Damp=F
 DIIS: error= 1.41D-05 at cycle  23 NSaved=  20.
 NSaved=20 IEnMin= 5 EnMin= -489.290886628105     IErMin=20 ErrMin= 1.41D-05
 ErrMax= 1.41D-05  0.00D+00 EMaxC= 1.00D-01 BMatC= 8.33D-09 BMatP= 6.38D-08
 IDIUse=1 WtCom= 1.00D+00 WtEn= 0.00D+00
 Coeff-Com: -0.103D-01-0.797D-02-0.719D-02-0.179D-02 0.938D-02 0.913D-02
 Coeff-Com:  0.404D-02 0.214D-01 0.845D-02-0.207D-01-0.168D-01-0.631D-02
 Coeff-Com:  0.249D-01 0.178D-01-0.546D-01-0.130D-01 0.136D+00-0.699D-01
 Coeff-Com: -0.643D+00 0.162D+01
 Coeff:     -0.103D-01-0.797D-02-0.719D-02-0.179D-02 0.938D-02 0.913D-02
 Coeff:      0.404D-02 0.214D-01 0.845D-02-0.207D-01-0.168D-01-0.631D-02
 Coeff:      0.249D-01 0.178D-01-0.546D-01-0.130D-01 0.136D+00-0.699D-01
 Coeff:     -0.643D+00 0.162D+01
 Gap=     0.145 Goal=   None    Shift=    0.000
 RMSDP=6.90D-06 MaxDP=1.21D-04 DE=-1.02D-07 OVMax= 3.81D-04

 Cycle  39  Pass 1  IDiag  1:
 RMSU=  2.29D-06    CP:  1.00D+00  1.36D+00  9.62D-01
 E= -489.290365970150     Delta-E=       -0.000000007256 Rises=F Damp=F
 DIIS: error= 1.17D-05 at cycle  24 NSaved=  20.
 NSaved=20 IEnMin= 5 EnMin= -489.290886628105     IErMin=20 ErrMin= 1.17D-05
 ErrMax= 1.17D-05  0.00D+00 EMaxC= 1.00D-01 BMatC= 7.48D-09 BMatP= 8.33D-09
 IDIUse=1 WtCom= 1.00D+00 WtEn= 0.00D+00
 Coeff-Com:  0.690D-04 0.415D-02 0.639D-02 0.772D-02-0.634D-02-0.925D-02
 Coeff-Com: -0.263D-02-0.241D-02 0.554D-02-0.292D-02 0.364D-02-0.197D-02
 Coeff-Com: -0.595D-02 0.288D-01-0.294D-01 0.123D-01 0.135D+00-0.154D+00
 Coeff-Com: -0.240D+00 0.125D+01
 Coeff:      0.690D-04 0.415D-02 0.639D-02 0.772D-02-0.634D-02-0.925D-02
 Coeff:     -0.263D-02-0.241D-02 0.554D-02-0.292D-02 0.364D-02-0.197D-02
 Coeff:     -0.595D-02 0.288D-01-0.294D-01 0.123D-01 0.135D+00-0.154D+00
 Coeff:     -0.240D+00 0.125D+01
 Gap=     0.145 Goal=   None    Shift=    0.000
 RMSDP=5.28D-06 MaxDP=8.38D-05 DE=-7.26D-09 OVMax= 3.18D-04

 Cycle  40  Pass 1  IDiag  1:
 RMSU=  4.98D-07    CP:  1.00D+00  1.01D+00  1.17D+00  7.58D-01
 E= -489.290365979266     Delta-E=       -0.000000009116 Rises=F Damp=F
 DIIS: error= 2.37D-06 at cycle  25 NSaved=  20.
 NSaved=20 IEnMin= 5 EnMin= -489.290886628105     IErMin=20 ErrMin= 2.37D-06
 ErrMax= 2.37D-06  0.00D+00 EMaxC= 1.00D-01 BMatC= 3.57D-10 BMatP= 7.48D-09
 IDIUse=1 WtCom= 1.00D+00 WtEn= 0.00D+00
 Coeff-Com:  0.223D-02-0.634D-02-0.989D-02-0.123D-01 0.105D-01 0.152D-01
 Coeff-Com:  0.201D-03 0.819D-04-0.603D-03 0.141D-02-0.895D-03-0.864D-03
 Coeff-Com:  0.223D-02 0.918D-02-0.221D-01-0.659D-01 0.109D+00-0.977D-01
 Coeff-Com: -0.283D+00 0.135D+01
 Coeff:      0.223D-02-0.634D-02-0.989D-02-0.123D-01 0.105D-01 0.152D-01
 Coeff:      0.201D-03 0.819D-04-0.603D-03 0.141D-02-0.895D-03-0.864D-03
 Coeff:      0.223D-02 0.918D-02-0.221D-01-0.659D-01 0.109D+00-0.977D-01
 Coeff:     -0.283D+00 0.135D+01
 Gap=     0.145 Goal=   None    Shift=    0.000
 RMSDP=4.56D-07 MaxDP=4.72D-06 DE=-9.12D-09 OVMax= 3.24D-05

 Cycle  41  Pass 1  IDiag  1:
 RMSU=  1.91D-07    CP:  1.00D+00  9.92D-01  1.20D+00  8.16D-01  1.36D+00
 E= -489.290365979514     Delta-E=       -0.000000000248 Rises=F Damp=F
 DIIS: error= 2.35D-06 at cycle  26 NSaved=  20.
 NSaved=20 IEnMin= 5 EnMin= -489.290886628105     IErMin=20 ErrMin= 2.35D-06
 ErrMax= 2.35D-06  0.00D+00 EMaxC= 1.00D-01 BMatC= 2.92D-10 BMatP= 3.57D-10
 IDIUse=1 WtCom= 1.00D+00 WtEn= 0.00D+00
 Coeff-Com:  0.170D-04 0.400D-03 0.260D-03-0.133D-03-0.327D-03-0.153D-03
 Coeff-Com: -0.405D-04-0.336D-03 0.705D-03-0.981D-03 0.923D-04-0.119D-02
 Coeff-Com:  0.748D-02 0.135D-03-0.267D-01 0.287D-01-0.196D-02-0.930D-01
 Coeff-Com: -0.778D-02 0.109D+01
 Coeff:      0.170D-04 0.400D-03 0.260D-03-0.133D-03-0.327D-03-0.153D-03
 Coeff:     -0.405D-04-0.336D-03 0.705D-03-0.981D-03 0.923D-04-0.119D-02
 Coeff:      0.748D-02 0.135D-03-0.267D-01 0.287D-01-0.196D-02-0.930D-01
 Coeff:     -0.778D-02 0.109D+01
 Gap=     0.145 Goal=   None    Shift=    0.000
 RMSDP=9.80D-07 MaxDP=1.50D-05 DE=-2.48D-10 OVMax= 6.26D-05

 Cycle  42  Pass 1  IDiag  1:
 RMSU=  7.08D-08    CP:  1.00D+00  1.06D+00  1.16D+00  8.47D-01  1.44D+00
                    CP:  8.35D-01
 E= -489.290365979920     Delta-E=       -0.000000000406 Rises=F Damp=F
 DIIS: error= 1.07D-07 at cycle  27 NSaved=  20.
 NSaved=20 IEnMin= 5 EnMin= -489.290886628105     IErMin=20 ErrMin= 1.07D-07
 ErrMax= 1.07D-07  0.00D+00 EMaxC= 1.00D-01 BMatC= 6.42D-13 BMatP= 2.92D-10
 IDIUse=1 WtCom= 1.00D+00 WtEn= 0.00D+00
 Coeff-Com:  0.246D-03 0.594D-03 0.692D-03 0.677D-03-0.910D-03-0.110D-02
 Coeff-Com: -0.131D-02 0.838D-03 0.836D-03-0.447D-03-0.214D-02-0.179D-02
 Coeff-Com:  0.511D-02 0.193D-01-0.231D-01 0.222D-01 0.710D-01-0.449D+00
 Coeff-Com:  0.190D-01 0.134D+01
 Coeff:      0.246D-03 0.594D-03 0.692D-03 0.677D-03-0.910D-03-0.110D-02
 Coeff:     -0.131D-02 0.838D-03 0.836D-03-0.447D-03-0.214D-02-0.179D-02
 Coeff:      0.511D-02 0.193D-01-0.231D-01 0.222D-01 0.710D-01-0.449D+00
 Coeff:      0.190D-01 0.134D+01
 Gap=     0.145 Goal=   None    Shift=    0.000
 RMSDP=2.84D-07 MaxDP=3.73D-06 DE=-4.06D-10 OVMax= 1.68D-05

 Cycle  43  Pass 1  IDiag  1:
 RMSU=  3.30D-08    CP:  1.00D+00  1.04D+00  1.17D+00  8.38D-01  1.51D+00
                    CP:  1.13D+00  1.49D+00
 E= -489.290365979921     Delta-E=       -0.000000000000 Rises=F Damp=F
 DIIS: error= 2.22D-07 at cycle  28 NSaved=  20.
 NSaved=20 IEnMin= 5 EnMin= -489.290886628105     IErMin=19 ErrMin= 1.07D-07
 ErrMax= 2.22D-07  0.00D+00 EMaxC= 1.00D-01 BMatC= 2.93D-12 BMatP= 6.42D-13
 IDIUse=1 WtCom= 1.00D+00 WtEn= 0.00D+00
 Coeff-Com: -0.656D-04 0.278D-03 0.452D-03 0.589D-03-0.507D-03-0.752D-03
 Coeff-Com: -0.186D-03 0.390D-03-0.207D-03 0.487D-03-0.133D-02-0.263D-02
 Coeff-Com:  0.140D-01-0.797D-02-0.802D-02 0.541D-01-0.125D+00-0.176D+00
 Coeff-Com:  0.372D+00 0.880D+00
 Coeff:     -0.656D-04 0.278D-03 0.452D-03 0.589D-03-0.507D-03-0.752D-03
 Coeff:     -0.186D-03 0.390D-03-0.207D-03 0.487D-03-0.133D-02-0.263D-02
 Coeff:      0.140D-01-0.797D-02-0.802D-02 0.541D-01-0.125D+00-0.176D+00
 Coeff:      0.372D+00 0.880D+00
 Gap=     0.145 Goal=   None    Shift=    0.000
 RMSDP=1.69D-07 MaxDP=3.36D-06 DE=-3.41D-13 OVMax= 1.00D-05

 Cycle  44  Pass 1  IDiag  1:
 RMSU=  9.53D-09    CP:  1.00D+00  1.05D+00  1.16D+00  8.62D-01  1.50D+00
                    CP:  1.24D+00  1.62D+00  1.23D+00
 E= -489.290365979917     Delta-E=        0.000000000004 Rises=F Damp=F
 DIIS: error= 2.08D-07 at cycle  29 NSaved=  20.
 NSaved=20 IEnMin= 5 EnMin= -489.290886628105     IErMin=18 ErrMin= 1.07D-07
 ErrMax= 2.08D-07  0.00D+00 EMaxC= 1.00D-01 BMatC= 2.51D-12 BMatP= 6.42D-13
 IDIUse=1 WtCom= 1.00D+00 WtEn= 0.00D+00
 Coeff-Com: -0.439D-04 0.329D-03 0.331D-03 0.244D-03-0.424D-03-0.478D-03
 Coeff-Com:  0.621D-04 0.650D-04 0.354D-03 0.202D-04-0.144D-02-0.125D-02
 Coeff-Com:  0.211D-02 0.266D-02-0.156D-01 0.484D-01 0.210D-01-0.289D+00
 Coeff-Com: -0.981D-01 0.133D+01
 Coeff:     -0.439D-04 0.329D-03 0.331D-03 0.244D-03-0.424D-03-0.478D-03
 Coeff:      0.621D-04 0.650D-04 0.354D-03 0.202D-04-0.144D-02-0.125D-02
 Coeff:      0.211D-02 0.266D-02-0.156D-01 0.484D-01 0.210D-01-0.289D+00
 Coeff:     -0.981D-01 0.133D+01
 Gap=     0.145 Goal=   None    Shift=    0.000
 RMSDP=4.66D-08 MaxDP=5.86D-07 DE= 3.75D-12 OVMax= 3.59D-06

 Cycle  45  Pass 1  IDiag  1:
 RMSU=  7.31D-09    CP:  1.00D+00  1.05D+00  1.16D+00  8.56D-01  1.51D+00
                    CP:  1.21D+00  1.86D+00  1.44D+00  1.93D+00
 E= -489.290365979918     Delta-E=       -0.000000000001 Rises=F Damp=F
 DIIS: error= 3.13D-07 at cycle  30 NSaved=  20.
 NSaved=20 IEnMin= 5 EnMin= -489.290886628105     IErMin=17 ErrMin= 1.07D-07
 ErrMax= 3.13D-07  0.00D+00 EMaxC= 1.00D-01 BMatC= 5.77D-12 BMatP= 6.42D-13
 IDIUse=1 WtCom= 1.00D+00 WtEn= 0.00D+00
 Large coefficients: NSaved= 20 BigCof=    0.00 CofMax=   10.00 Det=-4.73D-15
 Inversion failed.  Reducing to 19 matrices.
 Large coefficients: NSaved= 19 BigCof=    0.00 CofMax=   10.00 Det=-5.57D-15
 Inversion failed.  Reducing to 18 matrices.
 Large coefficients: NSaved= 18 BigCof=    0.00 CofMax=   10.00 Det=-5.68D-15
 Inversion failed.  Reducing to 17 matrices.
 Large coefficients: NSaved= 17 BigCof=    0.00 CofMax=   10.00 Det=-6.52D-15
 Inversion failed.  Reducing to 16 matrices.
 Large coefficients: NSaved= 16 BigCof=    0.00 CofMax=   10.00 Det=-8.02D-15
 Inversion failed.  Reducing to 15 matrices.
 Coeff-Com:  0.263D-04 0.337D-04-0.156D-06-0.601D-04-0.145D-04 0.261D-04
 Coeff-Com:  0.459D-03-0.412D-03-0.200D-01 0.379D-01 0.848D-01-0.784D-01
 Coeff-Com: -0.363D+00-0.221D+00 0.156D+01
 Coeff:      0.263D-04 0.337D-04-0.156D-06-0.601D-04-0.145D-04 0.261D-04
 Coeff:      0.459D-03-0.412D-03-0.200D-01 0.379D-01 0.848D-01-0.784D-01
 Coeff:     -0.363D+00-0.221D+00 0.156D+01
 Gap=     0.145 Goal=   None    Shift=    0.000
 RMSDP=1.01D-07 MaxDP=1.26D-06 DE=-1.36D-12 OVMax= 6.88D-06

 Cycle  46  Pass 1  IDiag  1:
 RMSU=  3.45D-09    CP:  1.00D+00  1.04D+00  1.17D+00  8.56D-01  1.52D+00
                    CP:  1.24D+00  1.93D+00  1.62D+00  2.90D+00  1.69D+00
 E= -489.290365979926     Delta-E=       -0.000000000008 Rises=F Damp=F
 DIIS: error= 1.26D-08 at cycle  31 NSaved=  16.
 NSaved=16 IEnMin= 5 EnMin= -489.290886628105     IErMin=16 ErrMin= 1.26D-08
 ErrMax= 1.26D-08  0.00D+00 EMaxC= 1.00D-01 BMatC= 1.22D-14 BMatP= 6.42D-13
 IDIUse=1 WtCom= 1.00D+00 WtEn= 0.00D+00
 Large coefficients: NSaved= 16 BigCof=    0.00 CofMax=   10.00 Det=-1.11D-15
 Inversion failed.  Reducing to 15 matrices.
 Coeff-Com: -0.777D-05-0.883D-04-0.828D-04-0.457D-04 0.110D-03 0.113D-03
 Coeff-Com:  0.947D-06 0.436D-02-0.146D-01-0.221D-01 0.744D-01 0.104D+00
 Coeff-Com: -0.245D+00-0.212D+00 0.131D+01
 Coeff:     -0.777D-05-0.883D-04-0.828D-04-0.457D-04 0.110D-03 0.113D-03
 Coeff:      0.947D-06 0.436D-02-0.146D-01-0.221D-01 0.744D-01 0.104D+00
 Coeff:     -0.245D+00-0.212D+00 0.131D+01
 Gap=     0.145 Goal=   None    Shift=    0.000
 RMSDP=1.55D-08 MaxDP=2.29D-07 DE=-8.07D-12 OVMax= 9.24D-07

 Cycle  47  Pass 1  IDiag  1:
 RMSU=  2.23D-09    CP:  1.00D+00  1.04D+00  1.17D+00  8.54D-01  1.53D+00
                    CP:  1.23D+00  1.96D+00  1.63D+00  3.00D+00  2.02D+00
                    CP:  1.44D+00
 E= -489.290365979927     Delta-E=       -0.000000000001 Rises=F Damp=F
 DIIS: error= 5.88D-08 at cycle  32 NSaved=  16.
 NSaved=16 IEnMin= 5 EnMin= -489.290886628105     IErMin=15 ErrMin= 1.26D-08
 ErrMax= 5.88D-08  0.00D+00 EMaxC= 1.00D-01 BMatC= 1.84D-13 BMatP= 1.22D-14
 IDIUse=1 WtCom= 1.00D+00 WtEn= 0.00D+00
 Large coefficients: NSaved= 16 BigCof=    0.00 CofMax=   10.00 Det=-5.07D-16
 Inversion failed.  Reducing to 15 matrices.
 Coeff-Com:  0.255D-04-0.120D-04-0.259D-04-0.433D-04 0.194D-04 0.379D-04
 Coeff-Com: -0.182D-03 0.406D-02-0.736D-02-0.550D-02-0.271D-02-0.625D-01
 Coeff-Com:  0.176D+00-0.163D+00 0.106D+01
 Coeff:      0.255D-04-0.120D-04-0.259D-04-0.433D-04 0.194D-04 0.379D-04
 Coeff:     -0.182D-03 0.406D-02-0.736D-02-0.550D-02-0.271D-02-0.625D-01
 Coeff:      0.176D+00-0.163D+00 0.106D+01
 Gap=     0.145 Goal=   None    Shift=    0.000
 RMSDP=1.22D-08 MaxDP=2.29D-07 DE=-1.25D-12 OVMax= 6.74D-07

 Cycle  48  Pass 1  IDiag  1:
 RMSU=  4.04D-10    CP:  1.00D+00  1.04D+00  1.17D+00  8.55D-01  1.53D+00
                    CP:  1.25D+00  1.96D+00  1.67D+00  3.00D+00  2.00D+00
                    CP:  1.71D+00  1.13D+00
 E= -489.290365979926     Delta-E=        0.000000000001 Rises=F Damp=F
 DIIS: error= 2.73D-09 at cycle  33 NSaved=  16.
 NSaved=16 IEnMin= 5 EnMin= -489.290886628105     IErMin=16 ErrMin= 2.73D-09
 ErrMax= 2.73D-09  0.00D+00 EMaxC= 1.00D-01 BMatC= 7.83D-16 BMatP= 1.22D-14
 IDIUse=1 WtCom= 1.00D+00 WtEn= 0.00D+00
 Large coefficients: NSaved= 16 BigCof=    0.00 CofMax=   10.00 Det=-4.01D-16
 Inversion failed.  Reducing to 15 matrices.
 Coeff-Com: -0.196D-05 0.975D-05 0.127D-04 0.161D-04-0.154D-04-0.230D-04
 Coeff-Com: -0.598D-04-0.333D-02 0.116D-01 0.109D-02-0.217D-01 0.234D-01
 Coeff-Com: -0.288D+00 0.214D+00 0.106D+01
 Coeff:     -0.196D-05 0.975D-05 0.127D-04 0.161D-04-0.154D-04-0.230D-04
 Coeff:     -0.598D-04-0.333D-02 0.116D-01 0.109D-02-0.217D-01 0.234D-01
 Coeff:     -0.288D+00 0.214D+00 0.106D+01
 Gap=     0.145 Goal=   None    Shift=    0.000
 RMSDP=6.61D-09 MaxDP=7.82D-08 DE= 1.36D-12 OVMax= 5.61D-07

 SCF Done:  E(RwB97XD) =  -489.290365980     A.U. after   48 cycles
            NFock= 48  Conv=0.66D-08     -V/T= 2.0050
 KE= 4.868554853580D+02 PE=-2.019603120592D+03 EE= 5.918633039903D+02
 Leave Link  502 at Wed Jan  5 16:40:44 2022, MaxMem=   402653184 cpu:            2088.3 elap:             266.0
 (Enter /work/01114/jfonner/frontera/gaussian/16rC.01/g16/l601.exe)
 Copying SCF densities to generalized density rwf, IOpCl= 0 IROHF=0.

 **********************************************************************

            Population analysis using the SCF Density.

 **********************************************************************

 Orbital symmetries:
       Occupied  (A) (A) (A) (A) (A) (A) (A) (A) (A) (A) (A) (A)
                 (A) (A) (A) (A) (A) (A) (A) (A) (A) (A) (A) (A)
                 (A) (A) (A) (A) (A) (A) (A) (A) (A) (A)
       Virtual   (A) (A) (A) (A) (A) (A) (A) (A) (A) (A) (A) (A)
                 (A) (A) (A) (A) (A) (A) (A) (A) (A) (A) (A) (A)
                 (A) (A) (A) (A) (A) (A) (A) (A) (A) (A) (A) (A)
                 (A) (A) (A) (A) (A) (A) (A) (A) (A) (A) (A) (A)
                 (A) (A) (A) (A) (A) (A) (A) (A) (A) (A) (A) (A)
                 (A) (A) (A) (A)
 The electronic state is 1-A.
 Alpha  occ. eigenvalues --  -19.72219 -19.70046 -14.98484 -14.88726 -10.88823
 Alpha  occ. eigenvalues --  -10.87091 -10.83406 -10.80775 -10.78567 -10.76657
 Alpha  occ. eigenvalues --   -1.61705  -1.60253  -1.47893  -1.42124  -1.34179
 Alpha  occ. eigenvalues --   -1.24523  -1.19488  -1.09829  -1.07090  -1.00615
 Alpha  occ. eigenvalues --   -0.97871  -0.95862  -0.95194  -0.94364  -0.93543
 Alpha  occ. eigenvalues --   -0.91136  -0.88400  -0.86753  -0.81927  -0.80229
 Alpha  occ. eigenvalues --   -0.78054  -0.76604  -0.73482  -0.71972
 Alpha virt. eigenvalues --   -0.57503  -0.49617  -0.45578  -0.43294  -0.37488
 Alpha virt. eigenvalues --   -0.31683  -0.29017  -0.16185  -0.12318  -0.11664
 Alpha virt. eigenvalues --   -0.10195  -0.07801  -0.07201  -0.06294  -0.05882
 Alpha virt. eigenvalues --   -0.05307  -0.00485   0.01701   0.06617   0.10595
 Alpha virt. eigenvalues --    0.20321   0.21370   0.22454   0.23223   0.26318
 Alpha virt. eigenvalues --    0.27920   0.28398   0.29274   0.29961   0.30589
 Alpha virt. eigenvalues --    0.32630   0.34034   0.35684   0.37638   0.39843
 Alpha virt. eigenvalues --    0.41863   0.42555   0.44978   0.47634   0.50548
 Alpha virt. eigenvalues --    0.53426   0.57437   0.60291   0.62047   0.64489
 Alpha virt. eigenvalues --    0.65139   0.67186   0.68681   0.69281   0.70970
 Alpha virt. eigenvalues --    0.73108   0.75439   0.77578   0.82497   0.85034
 Alpha virt. eigenvalues --    0.88323   0.90009   0.92451   0.95709   1.12925
 Alpha virt. eigenvalues --    1.21065   1.33832   1.45581   1.65110
          Condensed to atoms (all electrons):
               1          2          3          4          5          6
     1  C    4.907796   0.371501   0.072462  -0.026339   0.002725   0.000681
     2  O    0.371501   7.866886  -0.089025   0.007393  -0.001076   0.000002
     3  N    0.072462  -0.089025   7.167177   0.171724  -0.084464   0.001103
     4  C   -0.026339   0.007393   0.171724   5.490871   0.095887  -0.115993
     5  C    0.002725  -0.001076  -0.084464   0.095887   5.096220   0.393618
     6  O    0.000681   0.000002   0.001103  -0.115993   0.393618   8.029003
     7  N    0.001187   0.000296  -0.009655  -0.140847   0.266152  -0.134585
     8  C   -0.000026  -0.000005  -0.000139   0.005651  -0.055806  -0.011052
     9  C    0.002268   0.000477  -0.066080   0.348722  -0.083484  -0.001709
    10  C   -0.000036   0.000008   0.002239   0.000409   0.000234  -0.002438
    11  H    0.381931  -0.045980  -0.086107   0.005789  -0.000133   0.000018
    12  H    0.000337   0.000065  -0.005986  -0.022367   0.002935  -0.000010
    13  H    0.000000   0.000000  -0.000006  -0.000200   0.001478   0.000333
    14  H    0.000001   0.000000   0.000035  -0.000180   0.000462   0.000551
               7          8          9         10         11         12
     1  C    0.001187  -0.000026   0.002268  -0.000036   0.381931   0.000337
     2  O    0.000296  -0.000005   0.000477   0.000008  -0.045980   0.000065
     3  N   -0.009655  -0.000139  -0.066080   0.002239  -0.086107  -0.005986
     4  C   -0.140847   0.005651   0.348722   0.000409   0.005789  -0.022367
     5  C    0.266152  -0.055806  -0.083484   0.000234  -0.000133   0.002935
     6  O   -0.134585  -0.011052  -0.001709  -0.002438   0.000018  -0.000010
     7  N    7.122596   0.290082  -0.005234   0.001754   0.000007  -0.000045
     8  C    0.290082   4.972150  -0.000288  -0.000032  -0.000000   0.000003
     9  C   -0.005234  -0.000288   5.544063   0.111757  -0.000041   0.338379
    10  C    0.001754  -0.000032   0.111757   5.360489   0.000000  -0.015102
    11  H    0.000007  -0.000000  -0.000041   0.000000   0.391976  -0.000011
    12  H   -0.000045   0.000003   0.338379  -0.015102  -0.000011   0.344440
    13  H   -0.040982   0.355848   0.000023  -0.000007  -0.000000  -0.000000
    14  H   -0.038517   0.355864  -0.000006   0.000001   0.000000   0.000000
              13         14
     1  C    0.000000   0.000001
     2  O    0.000000   0.000000
     3  N   -0.000006   0.000035
     4  C   -0.000200  -0.000180
     5  C    0.001478   0.000462
     6  O    0.000333   0.000551
     7  N   -0.040982  -0.038517
     8  C    0.355848   0.355864
     9  C    0.000023  -0.000006
    10  C   -0.000007   0.000001
    11  H   -0.000000   0.000000
    12  H   -0.000000   0.000000
    13  H    0.368943  -0.021920
    14  H   -0.021920   0.364425
 Mulliken charges:
               1
     1  C    0.285512
     2  O   -0.110543
     3  N   -0.073278
     4  C    0.179481
     5  C    0.365251
     6  O   -0.159524
     7  N   -0.312209
     8  C    0.087751
     9  C   -0.188850
    10  C    0.540724
    11  H    0.352551
    12  H    0.357363
    13  H    0.336489
    14  H    0.339283
 Sum of Mulliken charges =   2.00000
 Mulliken charges with hydrogens summed into heavy atoms:
               1
     1  C    0.638063
     2  O   -0.110543
     3  N   -0.073278
     4  C    0.179481
     5  C    0.365251
     6  O   -0.159524
     7  N   -0.312209
     8  C    0.763524
     9  C    0.168513
    10  C    0.540724
 Electronic spatial extent (au):  <R**2>=           1371.6658
 Charge=              2.0000 electrons
 Dipole moment (field-independent basis, Debye):
    X=              1.3963    Y=              0.9410    Z=             -1.4952  Tot=              2.2519
 Quadrupole moment (field-independent basis, Debye-Ang):
   XX=             -7.4522   YY=            -17.6814   ZZ=            -53.1338
   XY=            -12.2667   XZ=             -9.7881   YZ=             -5.1547
 Traceless Quadrupole moment (field-independent basis, Debye-Ang):
   XX=             18.6369   YY=              8.4077   ZZ=            -27.0447
   XY=            -12.2667   XZ=             -9.7881   YZ=             -5.1547
 Octapole moment (field-independent basis, Debye-Ang**2):
  XXX=             19.8504  YYY=             16.6305  ZZZ=              0.1587  XYY=             22.1570
  XXY=            -56.2649  XXZ=              3.4461  XZZ=             -4.1575  YZZ=             -4.1940
  YYZ=            -12.9809  XYZ=             14.0765
 Hexadecapole moment (field-independent basis, Debye-Ang**3):
 XXXX=           -562.2403 YYYY=           -353.0046 ZZZZ=           -195.5189 XXXY=           -103.5339
 XXXZ=            -83.3889 YYYX=            -69.1633 YYYZ=            -19.2011 ZZZX=             -2.6669
 ZZZY=              2.3876 XXYY=           -149.3695 XXZZ=           -170.4536 YYZZ=           -119.1076
 XXYZ=              2.1525 YYXZ=            -13.3538 ZZXY=             -5.0565
 N-N= 4.515939652642D+02 E-N=-2.019603120699D+03  KE= 4.868554853580D+02
 No NMR shielding tensors so no spin-rotation constants.
 Leave Link  601 at Wed Jan  5 16:40:46 2022, MaxMem=   402653184 cpu:              37.0 elap:               2.0
 (Enter /work/01114/jfonner/frontera/gaussian/16rC.01/g16/l9999.exe)
 Unable to Open any file for archive entry.
 1\1\GINC-C202-005\SP\RwB97XD\6-31G\C6H4N2O2(2+)\SA748948\05-Jan-2022\0
 \\#p int=acc2e=12 wb97xd/6-31g\\Atom number=14\\2,1\C,0,4.271,0.817,11
 .296\O,0,4.359,2.033,11.367\N,0,3.492,0.104,12.073\C,0,2.585,0.677,13.
 085\C,0,3.006,0.047,14.361\O,0,2.958,-1.169,14.515\N,0,3.481,0.887,15.
 262\C,0,4.163,0.392,16.442\C,0,1.127,0.33,12.827\C,0,0.248,0.675,14.03
 8\H,0,4.84396452,0.24331567,10.59778947\H,0,0.80275271,0.84321259,11.9
 4587769\H,0,3.64026211,0.79731639,17.28304918\H,0,5.20408592,0.6363991
 9,16.405818\\Version=ES64L-G16RevC.01\State=1-A\HF=-489.290366\RMSD=6.
 609e-09\Dipole=-0.5458921,0.3961652,0.5744176\Quadrupole=4.5463784,-22
 .6063424,18.0599641,-1.95127,5.9736229,-0.2631616\PG=C01 [X(C6H4N2O2)]
 \\@
 The archive entry for this job was punched.


 WISDOM IS KNOWING WHAT TO DO,
 SKILL IS KNOWING HOW TO DO IT,
 AND VIRTUE IS NOT DOING IT.
 Job cpu time:       0 days  0 hours 37 minutes 53.0 seconds.
 Elapsed time:       0 days  0 hours  4 minutes 55.5 seconds.
 File lengths (MBytes):  RWF=     10 Int=      0 D2E=      0 Chk=      2 Scr=      1
 Normal termination of Gaussian 16 at Wed Jan  5 16:40:46 2022.
