 Entering Gaussian System, Link 0=g16
 Input=4znn_01_gebf_dft_8.gjf
 Output=4znn_01_gebf_dft_8.log
 Initial command:
 /work/01114/jfonner/frontera/gaussian/16rC.01/g16/l1.exe "/scratch1/08249/sa748948/lsqc/17325950/Gau-14779.inp" -scrdir="/scratch1/08249/sa748948/lsqc/17325950/"
 Entering Link 1 = /work/01114/jfonner/frontera/gaussian/16rC.01/g16/l1.exe PID=     14788.
  
 Copyright (c) 1988-2019, Gaussian, Inc.  All Rights Reserved.
  
 This is part of the Gaussian(R) 16 program.  It is based on
 the Gaussian(R) 09 system (copyright 2009, Gaussian, Inc.),
 the Gaussian(R) 03 system (copyright 2003, Gaussian, Inc.),
 the Gaussian(R) 98 system (copyright 1998, Gaussian, Inc.),
 the Gaussian(R) 94 system (copyright 1995, Gaussian, Inc.),
 the Gaussian 92(TM) system (copyright 1992, Gaussian, Inc.),
 the Gaussian 90(TM) system (copyright 1990, Gaussian, Inc.),
 the Gaussian 88(TM) system (copyright 1988, Gaussian, Inc.),
 the Gaussian 86(TM) system (copyright 1986, Carnegie Mellon
 University), and the Gaussian 82(TM) system (copyright 1983,
 Carnegie Mellon University). Gaussian is a federally registered
 trademark of Gaussian, Inc.
  
 This software contains proprietary and confidential information,
 including trade secrets, belonging to Gaussian, Inc.
  
 This software is provided under written license and may be
 used, copied, transmitted, or stored only in accord with that
 written license.
  
 The following legend is applicable only to US Government
 contracts under FAR:
  
                    RESTRICTED RIGHTS LEGEND
  
 Use, reproduction and disclosure by the US Government is
 subject to restrictions as set forth in subparagraphs (a)
 and (c) of the Commercial Computer Software - Restricted
 Rights clause in FAR 52.227-19.
  
 Gaussian, Inc.
 340 Quinnipiac St., Bldg. 40, Wallingford CT 06492
  
  
 ---------------------------------------------------------------
 Warning -- This program may not be used in any manner that
 competes with the business of Gaussian, Inc. or will provide
 assistance to any competitor of Gaussian, Inc.  The licensee
 of this program is prohibited from giving any competitor of
 Gaussian, Inc. access to this program.  By using this program,
 the user acknowledges that Gaussian, Inc. is engaged in the
 business of creating and licensing software in the field of
 computational chemistry and represents and warrants to the
 licensee that it is not a competitor of Gaussian, Inc. and that
 it will not use this program in any manner prohibited above.
 ---------------------------------------------------------------
  

 Cite this work as:
 Gaussian 16, Revision C.01,
 M. J. Frisch, G. W. Trucks, H. B. Schlegel, G. E. Scuseria, 
 M. A. Robb, J. R. Cheeseman, G. Scalmani, V. Barone, 
 G. A. Petersson, H. Nakatsuji, X. Li, M. Caricato, A. V. Marenich, 
 J. Bloino, B. G. Janesko, R. Gomperts, B. Mennucci, H. P. Hratchian, 
 J. V. Ortiz, A. F. Izmaylov, J. L. Sonnenberg, D. Williams-Young, 
 F. Ding, F. Lipparini, F. Egidi, J. Goings, B. Peng, A. Petrone, 
 T. Henderson, D. Ranasinghe, V. G. Zakrzewski, J. Gao, N. Rega, 
 G. Zheng, W. Liang, M. Hada, M. Ehara, K. Toyota, R. Fukuda, 
 J. Hasegawa, M. Ishida, T. Nakajima, Y. Honda, O. Kitao, H. Nakai, 
 T. Vreven, K. Throssell, J. A. Montgomery, Jr., J. E. Peralta, 
 F. Ogliaro, M. J. Bearpark, J. J. Heyd, E. N. Brothers, K. N. Kudin, 
 V. N. Staroverov, T. A. Keith, R. Kobayashi, J. Normand, 
 K. Raghavachari, A. P. Rendell, J. C. Burant, S. S. Iyengar, 
 J. Tomasi, M. Cossi, J. M. Millam, M. Klene, C. Adamo, R. Cammi, 
 J. W. Ochterski, R. L. Martin, K. Morokuma, O. Farkas, 
 J. B. Foresman, and D. J. Fox, Gaussian, Inc., Wallingford CT, 2019.
 
 ******************************************
 Gaussian 16:  ES64L-G16RevC.01  3-Jul-2019
                12-Jan-2022 
 ******************************************
 %chk=4znn_01_gebf_dft_8.chk
 %nproc=56
 Will use up to   56 processors via shared memory.
 %mem=3gb
 ----------------------------
 #p int=acc2e=12 wb97xd/6-31g
 ----------------------------
 1/38=1,172=1/1;
 2/12=2,17=6,18=5,40=1/2;
 3/5=1,6=6,11=2,25=1,27=12,30=1,74=-58/1,2,3;
 4//1;
 5/5=2,38=5,87=12/2;
 6/7=2,8=2,9=2,10=2,28=1,87=12/1;
 99/5=1,9=1/99;
 Leave Link    1 at Wed Jan 12 16:38:32 2022, MaxMem=   402653184 cpu:               2.2 elap:               0.4
 (Enter /work/01114/jfonner/frontera/gaussian/16rC.01/g16/l101.exe)
 --------------
 Atom number=23
 --------------
 Symbolic Z-matrix:
 Charge =  6 Multiplicity = 1
 c                     3.424     0.965     17.631 
 o                     3.136     2.11      17.612 
 n                     3.173     0.129     18.647 
 c                     2.559     0.516     19.903 
 c                     3.35     -0.122     21.014 
 o                     3.366    -1.339     21.14 
 n                     4.067     0.688     21.768 
 c                     4.888     0.205     22.851 
 c                     4.35      0.769     24.174 
 o                     4.161     1.981     24.269 
 n                     4.065    -0.12      25.151 
 c                     3.72      0.313     26.515 
 c                     1.138    -0.021     19.983 
 o                     0.393     0.394     18.824 
 c                     0.486     0.501     21.167 
 c                     6.362     0.614     22.652 
 c                     7.152     0.297     23.874 
 c                     6.953    -0.121     21.455 
 c                     4.941     0.14      27.42 
 o                     5.714    -0.809     27.287 
 o                     5.25      0.955     28.294 
 c                     2.499    -0.422     27.062 
 h                     3.94674   0.55968   16.78995 
 
 ITRead=  0  0  0  0  0  0  0  0  0  0  0  0  0  0  0  0  0  0  0  0
 ITRead=  0  0  0
 MicOpt= -1 -1 -1 -1 -1 -1 -1 -1 -1 -1 -1 -1 -1 -1 -1 -1 -1 -1 -1 -1
 MicOpt= -1 -1 -1
 NAtoms=     23 NQM=       23 NQMF=       0 NMMI=      0 NMMIF=      0
                NMic=       0 NMicF=      0.
                    Isotopes and Nuclear Properties:
 (Nuclear quadrupole moments (NQMom) in fm**2, nuclear magnetic moments (NMagM)
  in nuclear magnetons)

  Atom         1           2           3           4           5           6           7           8           9          10
 IAtWgt=          12          16          14          12          12          16          14          12          12          16
 AtmWgt=  12.0000000  15.9949146  14.0030740  12.0000000  12.0000000  15.9949146  14.0030740  12.0000000  12.0000000  15.9949146
 NucSpn=           0           0           2           0           0           0           2           0           0           0
 AtZEff=  -0.0000000  -0.0000000  -0.0000000  -0.0000000  -0.0000000  -0.0000000  -0.0000000  -0.0000000  -0.0000000  -0.0000000
 NQMom=    0.0000000   0.0000000   2.0440000   0.0000000   0.0000000   0.0000000   2.0440000   0.0000000   0.0000000   0.0000000
 NMagM=    0.0000000   0.0000000   0.4037610   0.0000000   0.0000000   0.0000000   0.4037610   0.0000000   0.0000000   0.0000000
 AtZNuc=   6.0000000   8.0000000   7.0000000   6.0000000   6.0000000   8.0000000   7.0000000   6.0000000   6.0000000   8.0000000

  Atom        11          12          13          14          15          16          17          18          19          20
 IAtWgt=          14          12          12          16          12          12          12          12          12          16
 AtmWgt=  14.0030740  12.0000000  12.0000000  15.9949146  12.0000000  12.0000000  12.0000000  12.0000000  12.0000000  15.9949146
 NucSpn=           2           0           0           0           0           0           0           0           0           0
 AtZEff=  -0.0000000  -0.0000000  -0.0000000  -0.0000000  -0.0000000  -0.0000000  -0.0000000  -0.0000000  -0.0000000  -0.0000000
 NQMom=    2.0440000   0.0000000   0.0000000   0.0000000   0.0000000   0.0000000   0.0000000   0.0000000   0.0000000   0.0000000
 NMagM=    0.4037610   0.0000000   0.0000000   0.0000000   0.0000000   0.0000000   0.0000000   0.0000000   0.0000000   0.0000000
 AtZNuc=   7.0000000   6.0000000   6.0000000   8.0000000   6.0000000   6.0000000   6.0000000   6.0000000   6.0000000   8.0000000

  Atom        21          22          23
 IAtWgt=          16          12           1
 AtmWgt=  15.9949146  12.0000000   1.0078250
 NucSpn=           0           0           1
 AtZEff=  -0.0000000  -0.0000000  -0.0000000
 NQMom=    0.0000000   0.0000000   0.0000000
 NMagM=    0.0000000   0.0000000   2.7928460
 AtZNuc=   8.0000000   6.0000000   1.0000000
 Leave Link  101 at Wed Jan 12 16:38:33 2022, MaxMem=   402653184 cpu:               6.3 elap:               1.1
 (Enter /work/01114/jfonner/frontera/gaussian/16rC.01/g16/l202.exe)
                          Input orientation:                          
 ---------------------------------------------------------------------
 Center     Atomic      Atomic             Coordinates (Angstroms)
 Number     Number       Type             X           Y           Z
 ---------------------------------------------------------------------
      1          6           0        3.424000    0.965000   17.631000
      2          8           0        3.136000    2.110000   17.612000
      3          7           0        3.173000    0.129000   18.647000
      4          6           0        2.559000    0.516000   19.903000
      5          6           0        3.350000   -0.122000   21.014000
      6          8           0        3.366000   -1.339000   21.140000
      7          7           0        4.067000    0.688000   21.768000
      8          6           0        4.888000    0.205000   22.851000
      9          6           0        4.350000    0.769000   24.174000
     10          8           0        4.161000    1.981000   24.269000
     11          7           0        4.065000   -0.120000   25.151000
     12          6           0        3.720000    0.313000   26.515000
     13          6           0        1.138000   -0.021000   19.983000
     14          8           0        0.393000    0.394000   18.824000
     15          6           0        0.486000    0.501000   21.167000
     16          6           0        6.362000    0.614000   22.652000
     17          6           0        7.152000    0.297000   23.874000
     18          6           0        6.953000   -0.121000   21.455000
     19          6           0        4.941000    0.140000   27.420000
     20          8           0        5.714000   -0.809000   27.287000
     21          8           0        5.250000    0.955000   28.294000
     22          6           0        2.499000   -0.422000   27.062000
     23          1           0        3.946738    0.559684   16.789951
 ---------------------------------------------------------------------
                    Distance matrix (angstroms):
                    1          2          3          4          5
     1  C    0.000000
     2  O    1.180818   0.000000
     3  N    1.339460   2.235387   0.000000
     4  C    2.472208   2.849991   1.450621   0.000000
     5  C    3.554115   4.074460   2.386843   1.505671   0.000000
     6  O    4.198197   4.939158   2.899538   2.371169   1.223610
     7  N    4.195825   4.490120   3.294292   2.404553   1.318600
     8  C    5.474422   5.843428   4.540993   3.769836   2.418045
     9  C    6.611107   6.806756   5.687061   4.638225   3.432125
    10  O    6.755625   6.736684   6.001078   4.875919   3.959211
    11  N    7.624861   7.916594   6.569603   5.496730   4.198333
    12  C    8.912810   9.101301   7.889137   6.716225   5.530563
    13  C    3.424894   3.762287   2.438979   1.521187   2.442561
    14  O    3.307000   3.455090   2.798205   2.422949   3.715670
    15  C    4.620653   4.716928   3.702533   2.428014   2.934967
    16  C    5.827992   6.168200   5.142467   4.693550   3.506691
    17  C    7.302004   7.656884   6.571316   6.075562   4.776020
    18  C    5.315657   5.857943   4.715481   4.703372   3.629889
    19  C    9.940143  10.165421   8.949384   7.894339   6.605813
    20  O   10.081146  10.429395   9.054619   8.138372   6.738768
    21  O   10.818223  10.950258   9.902566   8.822873   7.600548
    22  C    9.577221   9.804045   8.459911   7.220438   6.114941
    23  H    1.070000   1.933014   2.057375   3.408636   4.320113
                    6          7          8          9         10
     6  O    0.000000
     7  N    2.234841   0.000000
     8  C    2.761873   1.442296   0.000000
     9  C    3.823228   2.423940   1.535535   0.000000
    10  O    4.630882   2.817035   2.386091   1.230321   0.000000
    11  N    4.250022   3.478154   2.464336   1.351323   2.280645
    12  C    5.634274   4.774415   3.847179   2.466803   2.832176
    13  C    2.835447   3.502563   4.726415   5.339057   5.613941
    14  O    4.147996   4.717186   6.038003   6.664906   6.809142
    15  C    3.417708   3.635895   4.722402   4.903506   5.031742
    16  C    3.882830   2.460479   1.542582   2.527578   3.054141
    17  C    4.948237   3.755708   2.486099   2.857269   3.455136
    18  C    3.801226   3.013544   2.513825   3.867903   4.486899
    19  C    6.641270   5.745371   4.569770   3.358785   3.731820
    20  O    6.601486   5.950881   4.624778   3.747179   4.393658
    21  O    7.745425   6.637730   5.506341   4.221255   4.294092
    22  C    6.054970   5.631799   4.881902   3.631147   4.041968
    23  H    4.781755   4.981155   6.143948   7.398014   7.615919
                   11         12         13         14         15
    11  N    0.000000
    12  C    1.472077   0.000000
    13  C    5.940148   7.031735   0.000000
    14  O    7.333397   8.380153   1.438934   0.000000
    15  C    5.391395   6.252616   1.448946   2.347285   0.000000
    16  C    3.472746   4.689726   5.900590   7.094431   6.061796
    17  C    3.366628   4.330561   7.170021   8.437772   7.197570
    18  C    4.690518   6.020319   5.999251   7.086677   6.503224
    19  C    2.446086   1.529639   8.354502   9.728311   7.686179
    20  O    2.785035   2.414726   8.655006  10.068894   8.154906
    21  O    3.526797   2.432674   9.323832  10.657677   8.584634
    22  C    2.489072   1.526524   7.219790   8.541998   6.297231
    23  H    8.389464   9.730819   4.292058   4.098031   5.580207
                   16         17         18         19         20
    16  C    0.000000
    17  C    1.489252   0.000000
    18  C    1.523914   2.462902   0.000000
    19  C    4.997774   4.181780   6.300594   0.000000
    20  O    4.891631   3.865184   6.001724   1.231186   0.000000
    21  O    5.760641   4.856642   7.129510   1.234335   2.083516
    22  C    5.953500   5.686010   7.167089   2.531279   3.246016
    23  H    6.340352   7.779875   5.591389  10.684692  10.732407
                   21         22         23
    21  O    0.000000
    22  C    3.313903   0.000000
    23  H   11.584382  10.419916   0.000000
 Stoichiometry    C13HN3O6(6+)
 Framework group  C1[X(C13HN3O6)]
 Deg. of freedom    63
 Full point group                 C1      NOp   1
 Largest Abelian subgroup         C1      NOp   1
 Largest concise Abelian subgroup C1      NOp   1
                         Standard orientation:                         
 ---------------------------------------------------------------------
 Center     Atomic      Atomic             Coordinates (Angstroms)
 Number     Number       Type             X           Y           Z
 ---------------------------------------------------------------------
      1          6           0       -4.920102    1.122379    0.280337
      2          8           0       -5.082312    0.932772    1.434489
      3          7           0       -3.986496    0.523208   -0.470347
      4          6           0       -2.994993   -0.408725    0.032371
      5          6           0       -1.666772   -0.030397   -0.567415
      6          8           0       -1.481059   -0.136600   -1.772177
      7          7           0       -0.773262    0.483622    0.254856
      8          6           0        0.529582    0.909539   -0.193932
      9          6           0        1.598928    0.042223    0.485870
     10          8           0        1.571753   -0.082448    1.709557
     11          7           0        2.487805   -0.581362   -0.318564
     12          6           0        3.660919   -1.286156    0.223726
     13          6           0       -3.320242   -1.822570   -0.425082
     14          8           0       -4.669141   -2.158183   -0.053105
     15          6           0       -2.415508   -2.759936    0.209146
     16          6           0        0.763903    2.400457    0.125152
     17          6           0        2.181448    2.766914   -0.147153
     18          6           0       -0.160934    3.268926   -0.719095
     19          6           0        4.899322   -0.405002    0.051327
     20          8           0        5.053173    0.305171   -0.942556
     21          8           0        5.783869   -0.314845    0.907499
     22          6           0        3.850531   -2.662286   -0.409195
     23          1           0       -5.543087    1.842593   -0.207599
 ---------------------------------------------------------------------
 Rotational constants (GHZ):           0.5984594           0.1376928           0.1218064
 Leave Link  202 at Wed Jan 12 16:38:34 2022, MaxMem=   402653184 cpu:               2.9 elap:               0.5
 (Enter /work/01114/jfonner/frontera/gaussian/16rC.01/g16/l301.exe)
 Standard basis: 6-31G (6D, 7F)
 Ernie: Thresh=  0.10000D-02 Tol=  0.10000D-05 Strict=F.
 There are   200 symmetry adapted cartesian basis functions of A   symmetry.
 There are   200 symmetry adapted basis functions of A   symmetry.
   200 basis functions,   488 primitive gaussians,   200 cartesian basis functions
    71 alpha electrons       71 beta electrons
       nuclear repulsion energy      1482.1137874315 Hartrees.
 IExCor= 4639 DFT=T Ex+Corr=wB97XD ExCW=0 ScaHFX=  1.000000
 ScaDFX=  1.000000  1.000000  1.000000  1.000000 ScalE2=  1.000000  1.000000
 IRadAn=      5 IRanWt=     -1 IRanGd=            0 ICorTp=0 IEmpDi=121
 HFx  wShort=  0.000000 wLong=  0.200000 cFull=  0.222036 cShort=  0.000000 cLong=  0.777964
 DFx  wShort=  0.000000 wLong=  0.200000 cFull=  0.000000 cShort=  0.000000 cLong=  1.000000
 NAtoms=   23 NActive=   23 NUniq=   23 SFac= 1.00D+00 NAtFMM=   60 NAOKFM=F Big=F
 Integral buffers will be    131072 words long.
 Raffenetti 2 integral format.
 Two-electron integral symmetry is turned on.
 R6Disp:  Grimme-D2 Dispersion energy=       -0.0125651940 Hartrees.
 Nuclear repulsion after empirical dispersion term =     1482.1012222375 Hartrees.
 Leave Link  301 at Wed Jan 12 16:38:34 2022, MaxMem=   402653184 cpu:               4.2 elap:               0.7
 (Enter /work/01114/jfonner/frontera/gaussian/16rC.01/g16/l302.exe)
 NPDir=0 NMtPBC=     1 NCelOv=     1 NCel=       1 NClECP=     1 NCelD=      1
         NCelK=      1 NCelE2=     1 NClLst=     1 CellRange=     0.0.
 One-electron integrals computed using PRISM.
 One-electron integral symmetry used in STVInt
 NBasis=   200 RedAO= T EigKep=  3.25D-03  NBF=   200
 NBsUse=   200 1.00D-06 EigRej= -1.00D+00 NBFU=   200
 Precomputing XC quadrature grid using
 IXCGrd= 4 IRadAn=           5 IRanWt=          -1 IRanGd=           0 AccXCQ= 1.00D-12.
 Generated NRdTot=       0 NPtTot=           0 NUsed=           0 NTot=          32
 NSgBfM=   195   195   195   195   195 MxSgAt=    23 MxSgA2=    23.
 Leave Link  302 at Wed Jan 12 16:38:46 2022, MaxMem=   402653184 cpu:              71.0 elap:              11.9
 (Enter /work/01114/jfonner/frontera/gaussian/16rC.01/g16/l303.exe)
 DipDrv:  MaxL=1.
 Leave Link  303 at Wed Jan 12 16:38:49 2022, MaxMem=   402653184 cpu:              11.6 elap:               2.2
 (Enter /work/01114/jfonner/frontera/gaussian/16rC.01/g16/l401.exe)
 ExpMin= 1.61D-01 ExpMax= 5.48D+03 ExpMxC= 8.25D+02 IAcc=3 IRadAn=         5 AccDes= 0.00D+00
 Harris functional with IExCor= 4639 and IRadAn=       5 diagonalized for initial guess.
 HarFok:  IExCor= 4639 AccDes= 0.00D+00 IRadAn=         5 IDoV= 1 UseB2=F ITyADJ=14
 ICtDFT=  3500011 ScaDFX=  1.000000  1.000000  1.000000  1.000000
 FoFCou: FMM=F IPFlag=           0 FMFlag=      100000 FMFlg1=           0
         NFxFlg=           0 DoJE=T BraDBF=F KetDBF=T FulRan=T
         wScrn=  0.000000 ICntrl=       500 IOpCl=  0 I1Cent=   200000004 NGrid=           0
         NMat0=    1 NMatS0=      1 NMatT0=    0 NMatD0=    1 NMtDS0=    0 NMtDT0=    0
 Petite list used in FoFCou.
 Harris En= -1066.86763789266    
 JPrj=0 DoOrth=F DoCkMO=F.
 Leave Link  401 at Wed Jan 12 16:39:03 2022, MaxMem=   402653184 cpu:              83.5 elap:              13.9
 (Enter /work/01114/jfonner/frontera/gaussian/16rC.01/g16/l502.exe)
 Integral symmetry usage will be decided dynamically.
 Closed shell SCF:
 Using DIIS extrapolation, IDIIS=  1040.
 NGot=   402653184 LenX=   402559154 LenY=   402518713
 Requested convergence on RMS density matrix=1.00D-08 within 128 cycles.
 Requested convergence on MAX density matrix=1.00D-06.
 Requested convergence on             energy=1.00D-06.
 No special actions if energy rises.
 Fock matrices will be formed incrementally for  20 cycles.
 Integral accuracy reduced to 1.0D-05 until final iterations.

 Cycle   1  Pass 0  IDiag  1:
 FoFJK:  IHMeth= 1 ICntrl=       0 DoSepK=T KAlg= 0 I1Cent=           0 FoldK=F
 IRaf=         1 NMat=       1 IRICut=       1 DoRegI=T DoRafI=F ISym2E= 0 IDoP0=0 IntGTp=1.
 FoFCou: FMM=F IPFlag=           0 FMFlag=      100000 FMFlg1=           0
         NFxFlg=           0 DoJE=T BraDBF=F KetDBF=F FulRan=T
         wScrn=  0.000000 ICntrl=       500 IOpCl=  0 I1Cent=           0 NGrid=           0
         NMat0=    1 NMatS0=      1 NMatT0=    0 NMatD0=    1 NMtDS0=    0 NMtDT0=    0
 Symmetry not used in FoFCou.
 E= -1103.79054998905    
 DIIS: error= 4.38D-02 at cycle   1 NSaved=   1.
 NSaved= 1 IEnMin= 1 EnMin= -1103.79054998905     IErMin= 1 ErrMin= 4.38D-02
 ErrMax= 4.38D-02  0.00D+00 EMaxC= 1.00D-01 BMatC= 1.33D+00 BMatP= 1.33D+00
 IDIUse=3 WtCom= 5.62D-01 WtEn= 4.38D-01
 Coeff-Com:  0.100D+01
 Coeff-En:   0.100D+01
 Coeff:      0.100D+01
 Gap=     0.096 Goal=   None    Shift=    0.000
 GapD=    0.096 DampG=0.500 DampE=0.500 DampFc=0.2500 IDamp=-1.
 Damping current iteration by 2.50D-01
 RMSDP=1.80D-02 MaxDP=4.25D-01              OVMax= 9.34D-01

 Cycle   2  Pass 0  IDiag  1:
 RMSU=  4.50D-03    CP:  9.93D-01
 E= -1103.77302835096     Delta-E=        0.017521638087 Rises=F Damp=T
 DIIS: error= 5.34D-02 at cycle   2 NSaved=   2.
 NSaved= 2 IEnMin= 1 EnMin= -1103.79054998905     IErMin= 1 ErrMin= 4.38D-02
 ErrMax= 5.34D-02  0.00D+00 EMaxC= 1.00D-01 BMatC= 6.25D-01 BMatP= 1.33D+00
 IDIUse=3 WtCom= 4.66D-01 WtEn= 5.34D-01
 Coeff-Com:  0.881D-01 0.912D+00
 Coeff-En:   0.508D+00 0.492D+00
 Coeff:      0.312D+00 0.688D+00
 Gap=     0.114 Goal=   None    Shift=    0.000
 RMSDP=8.59D-03 MaxDP=1.83D-01 DE= 1.75D-02 OVMax= 9.31D-01

 Cycle   3  Pass 0  IDiag  1:
 RMSU=  8.50D-03    CP:  1.02D+00  1.16D+00
 E= -1103.86578908649     Delta-E=       -0.092760735524 Rises=F Damp=F
 DIIS: error= 5.72D-02 at cycle   3 NSaved=   3.
 NSaved= 3 IEnMin= 3 EnMin= -1103.86578908649     IErMin= 1 ErrMin= 4.38D-02
 ErrMax= 5.72D-02  0.00D+00 EMaxC= 1.00D-01 BMatC= 1.21D+00 BMatP= 6.25D-01
 IDIUse=2 WtCom= 0.00D+00 WtEn= 1.00D+00
 EnCoef did     2 forward-backward iterations
 Coeff-En:   0.144D+00 0.392D+00 0.464D+00
 Coeff:      0.144D+00 0.392D+00 0.464D+00
 Gap=    -0.052 Goal=   None    Shift=    0.000
 RMSDP=1.15D-02 MaxDP=4.04D-01 DE=-9.28D-02 OVMax= 9.27D-01

 Cycle   4  Pass 0  IDiag  1:
 RMSU=  9.10D-03    CP:  1.00D+00  1.94D+00  2.85D-01
 E= -1099.25781146400     Delta-E=        4.607977622489 Rises=F Damp=F
 DIIS: error= 1.16D-01 at cycle   4 NSaved=   4.
 NSaved= 4 IEnMin= 3 EnMin= -1103.86578908649     IErMin= 1 ErrMin= 4.38D-02
 ErrMax= 1.16D-01  0.00D+00 EMaxC= 1.00D-01 BMatC= 2.45D+00 BMatP= 6.25D-01
 IDIUse=2 WtCom= 0.00D+00 WtEn= 1.00D+00
 EnCoef did     1 forward-backward iterations
 Coeff-En:   0.138D+00 0.000D+00 0.620D+00 0.241D+00
 Coeff:      0.138D+00 0.000D+00 0.620D+00 0.241D+00
 Gap=     0.022 Goal=   None    Shift=    0.000
 RMSDP=1.28D-02 MaxDP=4.15D-01 DE= 4.61D+00 OVMax= 9.81D-01

 Cycle   5  Pass 0  IDiag  1:
 RMSU=  9.29D-03    CP:  9.95D-01  1.40D+00  4.69D-01  8.45D-02
 E= -1099.17232406370     Delta-E=        0.085487400293 Rises=F Damp=F
 DIIS: error= 1.49D-01 at cycle   5 NSaved=   5.
 NSaved= 5 IEnMin= 3 EnMin= -1103.86578908649     IErMin= 1 ErrMin= 4.38D-02
 ErrMax= 1.49D-01  0.00D+00 EMaxC= 1.00D-01 BMatC= 2.73D+00 BMatP= 6.25D-01
 IDIUse=2 WtCom= 0.00D+00 WtEn= 1.00D+00
 EnCoef did     4 forward-backward iterations
 Coeff-En:   0.000D+00 0.000D+00 0.614D+00 0.261D+00 0.125D+00
 Coeff:      0.000D+00 0.000D+00 0.614D+00 0.261D+00 0.125D+00
 Gap=     0.041 Goal=   None    Shift=    0.000
 RMSDP=9.18D-03 MaxDP=3.03D-01 DE= 8.55D-02 OVMax= 9.68D-01

 Problem detected with inexpensive integrals.
 Switching to full accuracy and repeating last cycle.
 Cycle   6  Pass 1  IDiag  1:
 E= -1099.17230591542     Delta-E=        0.000018148281 Rises=F Damp=F
 DIIS: error= 1.49D-01 at cycle   1 NSaved=   1.
 NSaved= 1 IEnMin= 1 EnMin= -1099.17230591542     IErMin= 1 ErrMin= 1.49D-01
 ErrMax= 1.49D-01  0.00D+00 EMaxC= 1.00D-01 BMatC= 2.73D+00 BMatP= 2.73D+00
 IDIUse=3 WtCom= 0.00D+00 WtEn= 1.00D+00
 Coeff-Com:  0.100D+01
 Coeff-En:   0.100D+01
 Coeff:      0.100D+01
 Gap=     0.178 Goal=   None    Shift=    0.000
 GapD=    0.178 DampG=1.000 DampE=0.250 DampFc=0.2500 IDamp=-1.
 Damping current iteration by 2.50D-01
 RMSDP=8.96D-02 MaxDP=5.19D+00 DE= 1.81D-05 OVMax= 9.10D-01

 Cycle   7  Pass 1  IDiag  1:
 RMSU=  2.24D-02    CP:  9.74D-01
 E= -1093.14602289144     Delta-E=        6.026283023984 Rises=F Damp=T
 DIIS: error= 5.30D-02 at cycle   2 NSaved=   2.
 NSaved= 2 IEnMin= 1 EnMin= -1099.17230591542     IErMin= 2 ErrMin= 5.30D-02
 ErrMax= 5.30D-02  0.00D+00 EMaxC= 1.00D-01 BMatC= 1.27D+00 BMatP= 2.73D+00
 IDIUse=3 WtCom= 4.70D-01 WtEn= 5.30D-01
 Coeff-Com:  0.319D+00 0.681D+00
 Coeff-En:   0.692D+00 0.308D+00
 Coeff:      0.517D+00 0.483D+00
 Gap=    -0.651 Goal=   None    Shift=    0.000
 RMSDP=2.51D-02 MaxDP=1.23D+00 DE= 6.03D+00 OVMax= 9.93D-01

 Cycle   8  Pass 1  IDiag  1:
 RMSU=  1.38D-02    CP:  9.12D-01  7.05D-02
 E= -1096.20765438422     Delta-E=       -3.061631492781 Rises=F Damp=F
 DIIS: error= 1.70D-01 at cycle   3 NSaved=   3.
 NSaved= 3 IEnMin= 1 EnMin= -1099.17230591542     IErMin= 2 ErrMin= 5.30D-02
 ErrMax= 1.70D-01  0.00D+00 EMaxC= 1.00D-01 BMatC= 6.54D+00 BMatP= 1.27D+00
 IDIUse=2 WtCom= 0.00D+00 WtEn= 1.00D+00
 EnCoef did     1 forward-backward iterations
 Coeff-En:   0.541D+00 0.871D-01 0.372D+00
 Coeff:      0.541D+00 0.871D-01 0.372D+00
 Gap=     0.210 Goal=   None    Shift=    0.000
 RMSDP=4.99D-02 MaxDP=3.20D+00 DE=-3.06D+00 OVMax= 9.73D-01

 Cycle   9  Pass 1  IDiag  1:
 RMSU=  4.28D-02    CP:  9.15D-01  1.08D+00  1.16D-01
 E= -1023.57309870369     Delta-E=       72.634555680526 Rises=F Damp=F
 DIIS: error= 1.79D-01 at cycle   4 NSaved=   4.
 NSaved= 4 IEnMin= 1 EnMin= -1099.17230591542     IErMin= 2 ErrMin= 5.30D-02
 ErrMax= 1.79D-01  0.00D+00 EMaxC= 1.00D-01 BMatC= 2.04D+01 BMatP= 1.27D+00
 IDIUse=2 WtCom= 0.00D+00 WtEn= 1.00D+00
 EnCoef did   100 forward-backward iterations
 Coeff-En:   0.563D+00 0.615D-02 0.339D+00 0.920D-01
 Coeff:      0.563D+00 0.615D-02 0.339D+00 0.920D-01
 Gap=    -0.325 Goal=   None    Shift=    0.000
 RMSDP=4.50D-02 MaxDP=2.63D+00 DE= 7.26D+01 OVMax= 9.93D-01

 Cycle  10  Pass 1  IDiag  1:
 RMSU=  1.32D-02    CP:  9.09D-01  1.80D-01  3.82D-01  1.18D-01
 E= -1090.30948662833     Delta-E=      -66.736387924635 Rises=F Damp=F
 DIIS: error= 1.41D-01 at cycle   5 NSaved=   5.
 NSaved= 5 IEnMin= 1 EnMin= -1099.17230591542     IErMin= 2 ErrMin= 5.30D-02
 ErrMax= 1.41D-01  0.00D+00 EMaxC= 1.00D-01 BMatC= 3.89D+00 BMatP= 1.27D+00
 IDIUse=2 WtCom= 0.00D+00 WtEn= 1.00D+00
 EnCoef did     2 forward-backward iterations
 Coeff-En:   0.498D+00 0.000D+00 0.235D+00 0.000D+00 0.267D+00
 Coeff:      0.498D+00 0.000D+00 0.235D+00 0.000D+00 0.267D+00
 Gap=     0.046 Goal=   None    Shift=    0.000
 RMSDP=1.35D-02 MaxDP=3.66D-01 DE=-6.67D+01 OVMax= 9.91D-01

 Cycle  11  Pass 1  IDiag  1:
 RMSU=  7.13D-03    CP:  9.44D-01  6.17D-02  5.06D-01  1.91D-02  2.28D-01
 E= -1103.45299837117     Delta-E=      -13.143511742844 Rises=F Damp=F
 DIIS: error= 9.96D-02 at cycle   6 NSaved=   6.
 NSaved= 6 IEnMin= 6 EnMin= -1103.45299837117     IErMin= 2 ErrMin= 5.30D-02
 ErrMax= 9.96D-02  0.00D+00 EMaxC= 1.00D-01 BMatC= 1.19D+00 BMatP= 1.27D+00
 IDIUse=3 WtCom= 4.14D-03 WtEn= 9.96D-01
 EnCoef did     2 forward-backward iterations
 Coeff-Com:  0.266D+00 0.270D+00 0.770D-01-0.297D-01 0.939D-01 0.323D+00
 Coeff-En:   0.323D+00 0.000D+00 0.000D+00 0.000D+00 0.138D+00 0.539D+00
 Coeff:      0.323D+00 0.112D-02 0.319D-03-0.123D-03 0.138D+00 0.538D+00
 Gap=    -0.034 Goal=   None    Shift=    0.000
 RMSDP=1.27D-02 MaxDP=4.17D-01 DE=-1.31D+01 OVMax= 9.28D-01

 Cycle  12  Pass 1  IDiag  1:
 RMSU=  8.71D-03    CP:  9.48D-01  7.86D-02  2.40D-01  4.26D-02  4.47D-01
                    CP: -1.06D-01
 E= -1097.46066382139     Delta-E=        5.992334549783 Rises=F Damp=F
 DIIS: error= 1.21D-01 at cycle   7 NSaved=   7.
 NSaved= 7 IEnMin= 6 EnMin= -1103.45299837117     IErMin= 2 ErrMin= 5.30D-02
 ErrMax= 1.21D-01  0.00D+00 EMaxC= 1.00D-01 BMatC= 3.97D+00 BMatP= 1.19D+00
 IDIUse=2 WtCom= 0.00D+00 WtEn= 1.00D+00
 EnCoef did     4 forward-backward iterations
 Coeff-En:   0.188D+00 0.000D+00 0.000D+00 0.000D+00 0.000D+00 0.608D+00
 Coeff-En:   0.204D+00
 Coeff:      0.188D+00 0.000D+00 0.000D+00 0.000D+00 0.000D+00 0.608D+00
 Coeff:      0.204D+00
 Gap=     0.123 Goal=   None    Shift=    0.000
 RMSDP=1.13D-02 MaxDP=3.23D-01 DE= 5.99D+00 OVMax= 9.58D-01

 Cycle  13  Pass 1  IDiag  1:
 RMSU=  7.05D-03    CP:  9.59D-01  9.85D-02  2.42D-01  5.30D-02  4.07D-01
                    CP:  5.85D-01  1.61D-01
 E= -1103.94550868234     Delta-E=       -6.484844860956 Rises=F Damp=F
 DIIS: error= 4.61D-02 at cycle   8 NSaved=   8.
 NSaved= 8 IEnMin= 8 EnMin= -1103.94550868234     IErMin= 8 ErrMin= 4.61D-02
 ErrMax= 4.61D-02  0.00D+00 EMaxC= 1.00D-01 BMatC= 8.05D-01 BMatP= 1.19D+00
 IDIUse=3 WtCom= 5.39D-01 WtEn= 4.61D-01
 EnCoef did     6 forward-backward iterations
 Coeff-Com:  0.132D+00 0.827D-01 0.129D-01-0.866D-02-0.772D-01 0.385D+00
 Coeff-Com:  0.133D+00 0.340D+00
 Coeff-En:   0.173D+00 0.000D+00 0.000D+00 0.000D+00 0.000D+00 0.417D+00
 Coeff-En:   0.915D-01 0.318D+00
 Coeff:      0.151D+00 0.446D-01 0.697D-02-0.467D-02-0.416D-01 0.400D+00
 Coeff:      0.114D+00 0.330D+00
 Gap=     0.051 Goal=   None    Shift=    0.000
 RMSDP=9.52D-03 MaxDP=2.82D-01 DE=-6.48D+00 OVMax= 9.35D-01

 Cycle  14  Pass 1  IDiag  1:
 RMSU=  5.37D-03    CP:  9.73D-01  2.81D-02  2.56D-01  9.86D-03  9.85D-02
                    CP:  2.98D-01  3.38D-01  1.92D-01
 E= -1103.62404306149     Delta-E=        0.321465620854 Rises=F Damp=F
 DIIS: error= 4.62D-02 at cycle   9 NSaved=   9.
 NSaved= 9 IEnMin= 8 EnMin= -1103.94550868234     IErMin= 8 ErrMin= 4.61D-02
 ErrMax= 4.62D-02  0.00D+00 EMaxC= 1.00D-01 BMatC= 8.08D-01 BMatP= 8.05D-01
 IDIUse=3 WtCom= 5.39D-01 WtEn= 4.61D-01
 EnCoef did     2 forward-backward iterations
 Coeff-Com:  0.152D-01 0.717D-01-0.695D-02-0.834D-02-0.387D-01 0.257D+00
 Coeff-Com:  0.267D-01 0.370D+00 0.313D+00
 Coeff-En:   0.000D+00 0.000D+00 0.000D+00 0.000D+00 0.000D+00 0.156D+00
 Coeff-En:   0.000D+00 0.439D+00 0.406D+00
 Coeff:      0.819D-02 0.387D-01-0.375D-02-0.450D-02-0.209D-01 0.210D+00
 Coeff:      0.144D-01 0.402D+00 0.356D+00
 Gap=     0.091 Goal=   None    Shift=    0.000
 RMSDP=7.41D-03 MaxDP=3.17D-01 DE= 3.21D-01 OVMax= 9.70D-01

 Cycle  15  Pass 1  IDiag  1:
 RMSU=  5.06D-03    CP:  9.58D-01  7.32D-02  3.29D-01  2.74D-02  2.58D-01
                    CP:  6.18D-01  2.47D-01  4.99D-01  3.68D-01
 E= -1104.92230908325     Delta-E=       -1.298266021754 Rises=F Damp=F
 DIIS: error= 3.20D-02 at cycle  10 NSaved=  10.
 NSaved=10 IEnMin=10 EnMin= -1104.92230908325     IErMin=10 ErrMin= 3.20D-02
 ErrMax= 3.20D-02  0.00D+00 EMaxC= 1.00D-01 BMatC= 3.64D-01 BMatP= 8.05D-01
 IDIUse=3 WtCom= 6.80D-01 WtEn= 3.20D-01
 EnCoef did     8 forward-backward iterations
 Coeff-Com: -0.136D-01 0.453D-01-0.244D-01-0.331D-02-0.129D-01 0.145D+00
 Coeff-Com: -0.128D-01 0.277D+00 0.335D+00 0.264D+00
 Coeff-En:   0.000D+00 0.000D+00 0.000D+00 0.000D+00 0.000D+00 0.000D+00
 Coeff-En:   0.000D+00 0.185D+00 0.269D+00 0.546D+00
 Coeff:     -0.924D-02 0.308D-01-0.166D-01-0.225D-02-0.879D-02 0.988D-01
 Coeff:     -0.871D-02 0.247D+00 0.314D+00 0.354D+00
 Gap=     0.067 Goal=   None    Shift=    0.000
 RMSDP=3.83D-03 MaxDP=1.39D-01 DE=-1.30D+00 OVMax= 2.23D-01

 Cycle  16  Pass 1  IDiag  1:
 RMSU=  3.24D-03    CP:  9.64D-01  7.00D-02  2.93D-01  2.80D-02  2.59D-01
                    CP:  5.77D-01  2.07D-01  5.46D-01  4.70D-01  6.45D-01
 E= -1105.29474743153     Delta-E=       -0.372438348286 Rises=F Damp=F
 DIIS: error= 1.41D-02 at cycle  11 NSaved=  11.
 NSaved=11 IEnMin=11 EnMin= -1105.29474743153     IErMin=11 ErrMin= 1.41D-02
 ErrMax= 1.41D-02  0.00D+00 EMaxC= 1.00D-01 BMatC= 4.90D-02 BMatP= 3.64D-01
 IDIUse=3 WtCom= 8.59D-01 WtEn= 1.41D-01
 Coeff-Com:  0.114D-02 0.353D-01-0.245D-01-0.272D-03-0.358D-02-0.977D-02
 Coeff-Com: -0.903D-02 0.221D-01 0.115D+00 0.233D+00 0.641D+00
 Coeff-En:   0.000D+00 0.000D+00 0.000D+00 0.000D+00 0.000D+00 0.000D+00
 Coeff-En:   0.000D+00 0.000D+00 0.000D+00 0.473D-02 0.995D+00
 Coeff:      0.983D-03 0.303D-01-0.210D-01-0.234D-03-0.307D-02-0.839D-02
 Coeff:     -0.776D-02 0.190D-01 0.987D-01 0.200D+00 0.691D+00
 Gap=     0.107 Goal=   None    Shift=    0.000
 RMSDP=1.87D-03 MaxDP=4.96D-02 DE=-3.72D-01 OVMax= 1.15D-01

 Cycle  17  Pass 1  IDiag  1:
 RMSU=  1.57D-03    CP:  9.69D-01  7.76D-02  2.64D-01  3.26D-02  2.61D-01
                    CP:  5.55D-01  2.29D-01  5.49D-01  5.28D-01  7.56D-01
                    CP:  8.33D-01
 E= -1105.33356106754     Delta-E=       -0.038813636012 Rises=F Damp=F
 DIIS: error= 8.49D-03 at cycle  12 NSaved=  12.
 NSaved=12 IEnMin=12 EnMin= -1105.33356106754     IErMin=12 ErrMin= 8.49D-03
 ErrMax= 8.49D-03  0.00D+00 EMaxC= 1.00D-01 BMatC= 2.04D-02 BMatP= 4.90D-02
 IDIUse=3 WtCom= 9.15D-01 WtEn= 8.49D-02
 Coeff-Com:  0.871D-02 0.165D-01-0.592D-02-0.583D-03-0.513D-02-0.412D-02
 Coeff-Com:  0.592D-03-0.144D-02 0.292D-02 0.299D-01 0.422D+00 0.537D+00
 Coeff-En:   0.000D+00 0.000D+00 0.000D+00 0.000D+00 0.000D+00 0.000D+00
 Coeff-En:   0.000D+00 0.000D+00 0.000D+00 0.000D+00 0.239D+00 0.761D+00
 Coeff:      0.797D-02 0.151D-01-0.542D-02-0.534D-03-0.470D-02-0.377D-02
 Coeff:      0.542D-03-0.131D-02 0.267D-02 0.274D-01 0.406D+00 0.556D+00
 Gap=     0.146 Goal=   None    Shift=    0.000
 RMSDP=8.90D-04 MaxDP=2.43D-02 DE=-3.88D-02 OVMax= 5.16D-02

 Cycle  18  Pass 1  IDiag  1:
 RMSU=  6.63D-04    CP:  9.67D-01  7.35D-02  2.62D-01  3.03D-02  2.63D-01
                    CP:  5.37D-01  2.25D-01  5.51D-01  5.28D-01  6.90D-01
                    CP:  9.42D-01  8.24D-01
 E= -1105.35470610094     Delta-E=       -0.021145033401 Rises=F Damp=F
 DIIS: error= 3.46D-03 at cycle  13 NSaved=  13.
 NSaved=13 IEnMin=13 EnMin= -1105.35470610094     IErMin=13 ErrMin= 3.46D-03
 ErrMax= 3.46D-03  0.00D+00 EMaxC= 1.00D-01 BMatC= 3.02D-03 BMatP= 2.04D-02
 IDIUse=3 WtCom= 9.65D-01 WtEn= 3.46D-02
 Coeff-Com:  0.454D-02 0.912D-02-0.406D-03-0.504D-03-0.350D-02 0.385D-02
 Coeff-Com: -0.122D-02 0.572D-02-0.578D-02-0.110D-03 0.166D+00 0.328D+00
 Coeff-Com:  0.494D+00
 Coeff-En:   0.000D+00 0.000D+00 0.000D+00 0.000D+00 0.000D+00 0.000D+00
 Coeff-En:   0.000D+00 0.000D+00 0.000D+00 0.000D+00 0.000D+00 0.000D+00
 Coeff-En:   0.100D+01
 Coeff:      0.438D-02 0.881D-02-0.392D-03-0.486D-03-0.338D-02 0.372D-02
 Coeff:     -0.118D-02 0.552D-02-0.558D-02-0.106D-03 0.160D+00 0.317D+00
 Coeff:      0.512D+00
 Gap=     0.158 Goal=   None    Shift=    0.000
 RMSDP=4.39D-04 MaxDP=1.33D-02 DE=-2.11D-02 OVMax= 3.58D-02

 Cycle  19  Pass 1  IDiag  1:
 RMSU=  3.65D-04    CP:  9.67D-01  7.23D-02  2.59D-01  2.98D-02  2.63D-01
                    CP:  5.28D-01  2.27D-01  5.51D-01  5.29D-01  6.76D-01
                    CP:  9.36D-01  9.55D-01  1.11D+00
 E= -1105.35731634658     Delta-E=       -0.002610245637 Rises=F Damp=F
 DIIS: error= 4.29D-03 at cycle  14 NSaved=  14.
 NSaved=14 IEnMin=14 EnMin= -1105.35731634658     IErMin=13 ErrMin= 3.46D-03
 ErrMax= 4.29D-03  0.00D+00 EMaxC= 1.00D-01 BMatC= 3.07D-03 BMatP= 3.02D-03
 IDIUse=3 WtCom= 9.65D-01 WtEn= 3.46D-02
 Coeff-Com:  0.211D-03 0.328D-02 0.227D-02-0.123D-03-0.155D-02 0.810D-02
 Coeff-Com: -0.280D-02 0.428D-02-0.115D-01 0.129D-02-0.105D-01 0.338D-01
 Coeff-Com:  0.491D+00 0.483D+00
 Coeff-En:   0.000D+00 0.000D+00 0.000D+00 0.000D+00 0.000D+00 0.000D+00
 Coeff-En:   0.000D+00 0.000D+00 0.000D+00 0.000D+00 0.000D+00 0.000D+00
 Coeff-En:   0.214D+00 0.786D+00
 Coeff:      0.204D-03 0.316D-02 0.219D-02-0.119D-03-0.150D-02 0.782D-02
 Coeff:     -0.271D-02 0.413D-02-0.111D-01 0.124D-02-0.101D-01 0.326D-01
 Coeff:      0.481D+00 0.493D+00
 Gap=     0.165 Goal=   None    Shift=    0.000
 RMSDP=3.75D-04 MaxDP=1.22D-02 DE=-2.61D-03 OVMax= 3.01D-02

 Cycle  20  Pass 1  IDiag  1:
 RMSU=  2.28D-04    CP:  9.67D-01  7.18D-02  2.56D-01  2.98D-02  2.64D-01
                    CP:  5.16D-01  2.25D-01  5.51D-01  5.38D-01  6.64D-01
                    CP:  9.38D-01  1.06D+00  1.44D+00  9.75D-01
 E= -1105.36069540668     Delta-E=       -0.003379060103 Rises=F Damp=F
 DIIS: error= 2.93D-03 at cycle  15 NSaved=  15.
 NSaved=15 IEnMin=15 EnMin= -1105.36069540668     IErMin=15 ErrMin= 2.93D-03
 ErrMax= 2.93D-03  0.00D+00 EMaxC= 1.00D-01 BMatC= 1.56D-03 BMatP= 3.02D-03
 IDIUse=3 WtCom= 9.71D-01 WtEn= 2.93D-02
 Coeff-Com: -0.152D-02 0.193D-02 0.155D-02-0.152D-04-0.666D-03 0.841D-02
 Coeff-Com: -0.324D-02 0.240D-02-0.774D-02 0.116D-01-0.388D-02-0.139D-01
 Coeff-Com:  0.316D+00 0.372D+00 0.317D+00
 Coeff-En:   0.000D+00 0.000D+00 0.000D+00 0.000D+00 0.000D+00 0.000D+00
 Coeff-En:   0.000D+00 0.000D+00 0.000D+00 0.000D+00 0.000D+00 0.000D+00
 Coeff-En:   0.000D+00 0.000D+00 0.100D+01
 Coeff:     -0.147D-02 0.188D-02 0.151D-02-0.148D-04-0.647D-03 0.816D-02
 Coeff:     -0.314D-02 0.233D-02-0.751D-02 0.113D-01-0.377D-02-0.135D-01
 Coeff:      0.307D+00 0.361D+00 0.337D+00
 Gap=     0.163 Goal=   None    Shift=    0.000
 RMSDP=1.36D-04 MaxDP=2.78D-03 DE=-3.38D-03 OVMax= 1.01D-02

 Cycle  21  Pass 1  IDiag  1:
 RMSU=  8.32D-05    CP:  9.67D-01  7.14D-02  2.56D-01  2.97D-02  2.65D-01
                    CP:  5.14D-01  2.26D-01  5.49D-01  5.40D-01  6.58D-01
                    CP:  9.34D-01  1.08D+00  1.54D+00  1.14D+00  1.10D+00
 E= -1105.36191939214     Delta-E=       -0.001223985457 Rises=F Damp=F
 DIIS: error= 1.97D-03 at cycle  16 NSaved=  16.
 NSaved=16 IEnMin=16 EnMin= -1105.36191939214     IErMin=16 ErrMin= 1.97D-03
 ErrMax= 1.97D-03  0.00D+00 EMaxC= 1.00D-01 BMatC= 8.75D-04 BMatP= 1.56D-03
 IDIUse=3 WtCom= 9.80D-01 WtEn= 1.97D-02
 Coeff-Com: -0.302D-02-0.685D-03-0.635D-03-0.283D-04 0.157D-02 0.534D-02
 Coeff-Com: -0.121D-02-0.869D-02-0.468D-02 0.244D-01 0.825D-01-0.224D-01
 Coeff-Com: -0.252D+00-0.343D+00-0.350D+00 0.187D+01
 Coeff-En:   0.000D+00 0.000D+00 0.000D+00 0.000D+00 0.000D+00 0.000D+00
 Coeff-En:   0.000D+00 0.000D+00 0.000D+00 0.000D+00 0.000D+00 0.000D+00
 Coeff-En:   0.000D+00 0.000D+00 0.000D+00 0.100D+01
 Coeff:     -0.296D-02-0.671D-03-0.622D-03-0.277D-04 0.154D-02 0.523D-02
 Coeff:     -0.118D-02-0.852D-02-0.458D-02 0.239D-01 0.809D-01-0.220D-01
 Coeff:     -0.247D+00-0.336D+00-0.343D+00 0.185D+01
 Gap=     0.165 Goal=   None    Shift=    0.000
 RMSDP=4.83D-04 MaxDP=1.03D-02 DE=-1.22D-03 OVMax= 4.12D-02

 Cycle  22  Pass 1  IDiag  1:
 RMSU=  1.32D-04    CP:  9.67D-01  6.98D-02  2.57D-01  2.92D-02  2.66D-01
                    CP:  5.03D-01  2.24D-01  5.41D-01  5.49D-01  6.39D-01
                    CP:  9.23D-01  1.17D+00  1.92D+00  1.64D+00  2.21D+00
                    CP:  2.33D+00
 E= -1105.36461145339     Delta-E=       -0.002692061250 Rises=F Damp=F
 DIIS: error= 1.93D-03 at cycle  17 NSaved=  17.
 NSaved=17 IEnMin=17 EnMin= -1105.36461145339     IErMin=17 ErrMin= 1.93D-03
 ErrMax= 1.93D-03  0.00D+00 EMaxC= 1.00D-01 BMatC= 4.59D-04 BMatP= 8.75D-04
 IDIUse=3 WtCom= 9.81D-01 WtEn= 1.93D-02
 Coeff-Com: -0.199D-02-0.467D-03 0.203D-03-0.145D-03 0.632D-03-0.102D-02
 Coeff-Com:  0.752D-03-0.107D-02-0.146D-02 0.110D-01 0.629D-01 0.306D-01
 Coeff-Com: -0.170D+00-0.308D+00-0.909D+00 0.128D+01 0.100D+01
 Coeff-En:   0.000D+00 0.000D+00 0.000D+00 0.000D+00 0.000D+00 0.000D+00
 Coeff-En:   0.000D+00 0.000D+00 0.000D+00 0.000D+00 0.000D+00 0.000D+00
 Coeff-En:   0.000D+00 0.000D+00 0.000D+00 0.000D+00 0.100D+01
 Coeff:     -0.195D-02-0.458D-03 0.199D-03-0.142D-03 0.620D-03-0.997D-03
 Coeff:      0.738D-03-0.104D-02-0.144D-02 0.107D-01 0.617D-01 0.300D-01
 Coeff:     -0.167D+00-0.302D+00-0.891D+00 0.126D+01 0.100D+01
 Gap=     0.162 Goal=   None    Shift=    0.000
 RMSDP=3.46D-04 MaxDP=8.49D-03 DE=-2.69D-03 OVMax= 2.39D-02

 Cycle  23  Pass 1  IDiag  1:
 RMSU=  1.04D-04    CP:  9.67D-01  6.87D-02  2.57D-01  2.88D-02  2.67D-01
                    CP:  4.93D-01  2.24D-01  5.40D-01  5.54D-01  6.23D-01
                    CP:  9.11D-01  1.22D+00  2.15D+00  2.01D+00  2.98D+00
                    CP:  3.00D+00  1.47D+00
 E= -1105.36593718506     Delta-E=       -0.001325731670 Rises=F Damp=F
 DIIS: error= 7.04D-04 at cycle  18 NSaved=  18.
 NSaved=18 IEnMin=18 EnMin= -1105.36593718506     IErMin=18 ErrMin= 7.04D-04
 ErrMax= 7.04D-04  0.00D+00 EMaxC= 1.00D-01 BMatC= 1.09D-04 BMatP= 4.59D-04
 IDIUse=3 WtCom= 9.93D-01 WtEn= 7.04D-03
 Coeff-Com: -0.168D-02 0.137D-02 0.534D-03-0.730D-04-0.291D-03-0.117D-02
 Coeff-Com:  0.790D-03 0.166D-02-0.576D-03 0.269D-02 0.103D-01 0.133D-01
 Coeff-Com: -0.619D-02-0.522D-01-0.528D+00 0.355D+00 0.454D+00 0.751D+00
 Coeff-En:   0.000D+00 0.000D+00 0.000D+00 0.000D+00 0.000D+00 0.000D+00
 Coeff-En:   0.000D+00 0.000D+00 0.000D+00 0.000D+00 0.000D+00 0.000D+00
 Coeff-En:   0.000D+00 0.000D+00 0.000D+00 0.000D+00 0.000D+00 0.100D+01
 Coeff:     -0.166D-02 0.136D-02 0.530D-03-0.725D-04-0.289D-03-0.117D-02
 Coeff:      0.785D-03 0.165D-02-0.572D-03 0.267D-02 0.103D-01 0.132D-01
 Coeff:     -0.614D-02-0.518D-01-0.525D+00 0.353D+00 0.451D+00 0.753D+00
 Gap=     0.161 Goal=   None    Shift=    0.000
 RMSDP=1.63D-04 MaxDP=5.03D-03 DE=-1.33D-03 OVMax= 1.23D-02

 Cycle  24  Pass 1  IDiag  1:
 RMSU=  8.94D-05    CP:  9.67D-01  6.83D-02  2.57D-01  2.88D-02  2.67D-01
                    CP:  4.88D-01  2.24D-01  5.39D-01  5.56D-01  6.15D-01
                    CP:  9.03D-01  1.24D+00  2.25D+00  2.15D+00  3.00D+00
                    CP:  3.00D+00  1.85D+00  1.50D+00
 E= -1105.36630939019     Delta-E=       -0.000372205128 Rises=F Damp=F
 DIIS: error= 7.34D-04 at cycle  19 NSaved=  19.
 NSaved=19 IEnMin=19 EnMin= -1105.36630939019     IErMin=18 ErrMin= 7.04D-04
 ErrMax= 7.34D-04  0.00D+00 EMaxC= 1.00D-01 BMatC= 5.87D-05 BMatP= 1.09D-04
 IDIUse=3 WtCom= 9.93D-01 WtEn= 7.04D-03
 Coeff-Com: -0.547D-03 0.133D-02 0.400D-04-0.237D-04 0.784D-04-0.158D-03
 Coeff-Com:  0.223D-03 0.845D-03-0.353D-03 0.130D-02-0.141D-01-0.100D-01
 Coeff-Com:  0.761D-01 0.107D+00-0.381D-01-0.228D+00-0.220D+00 0.439D+00
 Coeff-Com:  0.886D+00
 Coeff-En:   0.000D+00 0.000D+00 0.000D+00 0.000D+00 0.000D+00 0.000D+00
 Coeff-En:   0.000D+00 0.000D+00 0.000D+00 0.000D+00 0.000D+00 0.000D+00
 Coeff-En:   0.000D+00 0.000D+00 0.000D+00 0.000D+00 0.000D+00 0.000D+00
 Coeff-En:   0.100D+01
 Coeff:     -0.543D-03 0.132D-02 0.397D-04-0.235D-04 0.778D-04-0.157D-03
 Coeff:      0.221D-03 0.839D-03-0.351D-03 0.129D-02-0.140D-01-0.993D-02
 Coeff:      0.756D-01 0.106D+00-0.379D-01-0.227D+00-0.218D+00 0.436D+00
 Coeff:      0.887D+00
 Gap=     0.159 Goal=   None    Shift=    0.000
 RMSDP=1.48D-04 MaxDP=4.65D-03 DE=-3.72D-04 OVMax= 1.15D-02

 Cycle  25  Pass 1  IDiag  1:
 RMSU=  4.37D-05    CP:  9.66D-01  6.79D-02  2.58D-01  2.87D-02  2.67D-01
                    CP:  4.84D-01  2.24D-01  5.40D-01  5.57D-01  6.08D-01
                    CP:  8.94D-01  1.26D+00  2.32D+00  2.27D+00  3.00D+00
                    CP:  3.00D+00  2.25D+00  2.17D+00  1.74D+00
 E= -1105.36658298133     Delta-E=       -0.000273591143 Rises=F Damp=F
 DIIS: error= 3.25D-04 at cycle  20 NSaved=  20.
 NSaved=20 IEnMin=20 EnMin= -1105.36658298133     IErMin=20 ErrMin= 3.25D-04
 ErrMax= 3.25D-04  0.00D+00 EMaxC= 1.00D-01 BMatC= 2.18D-05 BMatP= 5.87D-05
 IDIUse=3 WtCom= 9.97D-01 WtEn= 3.25D-03
 Coeff-Com:  0.160D-03 0.879D-03-0.245D-03 0.243D-05 0.278D-03 0.226D-03
 Coeff-Com: -0.233D-03 0.342D-03-0.551D-03 0.129D-02-0.102D-01-0.120D-01
 Coeff-Com:  0.525D-01 0.896D-01 0.108D+00-0.235D+00-0.312D+00 0.459D-01
 Coeff-Com:  0.512D+00 0.759D+00
 Coeff-En:   0.000D+00 0.000D+00 0.000D+00 0.000D+00 0.000D+00 0.000D+00
 Coeff-En:   0.000D+00 0.000D+00 0.000D+00 0.000D+00 0.000D+00 0.000D+00
 Coeff-En:   0.000D+00 0.000D+00 0.000D+00 0.000D+00 0.000D+00 0.000D+00
 Coeff-En:   0.000D+00 0.100D+01
 Coeff:      0.159D-03 0.876D-03-0.244D-03 0.243D-05 0.277D-03 0.226D-03
 Coeff:     -0.233D-03 0.341D-03-0.550D-03 0.128D-02-0.101D-01-0.119D-01
 Coeff:      0.523D-01 0.893D-01 0.107D+00-0.234D+00-0.311D+00 0.458D-01
 Coeff:      0.510D+00 0.760D+00
 Gap=     0.158 Goal=   None    Shift=    0.000
 RMSDP=1.11D-04 MaxDP=3.54D-03 DE=-2.74D-04 OVMax= 9.03D-03

 Cycle  26  Pass 1  IDiag  1:
 Restarting incremental Fock formation.
 E= -1105.36672816964     Delta-E=       -0.000145188313 Rises=F Damp=F
 DIIS: error= 2.31D-04 at cycle  21 NSaved=  20.
 NSaved=20 IEnMin=20 EnMin= -1105.36672816964     IErMin=20 ErrMin= 2.31D-04
 ErrMax= 2.31D-04  0.00D+00 EMaxC= 1.00D-01 BMatC= 1.13D-05 BMatP= 2.18D-05
 IDIUse=3 WtCom= 9.98D-01 WtEn= 2.31D-03
 Coeff-Com:  0.485D-03-0.777D-04-0.162D-03 0.164D-03 0.168D-03-0.292D-03
 Coeff-Com:  0.899D-03-0.128D-02 0.194D-03-0.144D-04-0.429D-02 0.781D-03
 Coeff-Com:  0.999D-02 0.147D-01 0.120D-02-0.702D-01-0.840D-01-0.145D+00
 Coeff-Com:  0.420D+00 0.856D+00
 Coeff-En:   0.000D+00 0.000D+00 0.000D+00 0.000D+00 0.000D+00 0.000D+00
 Coeff-En:   0.000D+00 0.000D+00 0.000D+00 0.000D+00 0.000D+00 0.000D+00
 Coeff-En:   0.000D+00 0.000D+00 0.000D+00 0.000D+00 0.000D+00 0.000D+00
 Coeff-En:   0.000D+00 0.100D+01
 Coeff:      0.484D-03-0.776D-04-0.162D-03 0.163D-03 0.168D-03-0.292D-03
 Coeff:      0.897D-03-0.128D-02 0.193D-03-0.144D-04-0.428D-02 0.779D-03
 Coeff:      0.997D-02 0.147D-01 0.120D-02-0.700D-01-0.838D-01-0.145D+00
 Coeff:      0.419D+00 0.857D+00
 Gap=     0.158 Goal=   None    Shift=    0.000
 RMSDP=9.01D-05 MaxDP=2.73D-03 DE=-1.45D-04 OVMax= 7.37D-03

 Cycle  27  Pass 1  IDiag  1:
 RMSU=  9.01D-05    CP:  1.00D+00
 E= -1105.36681636430     Delta-E=       -0.000088194653 Rises=F Damp=F
 DIIS: error= 1.80D-04 at cycle  22 NSaved=  20.
 NSaved=20 IEnMin=20 EnMin= -1105.36681636430     IErMin=20 ErrMin= 1.80D-04
 ErrMax= 1.80D-04  0.00D+00 EMaxC= 1.00D-01 BMatC= 8.48D-06 BMatP= 1.13D-05
 IDIUse=3 WtCom= 9.98D-01 WtEn= 1.80D-03
 Coeff-Com:  0.538D-03-0.520D-03-0.688D-04 0.899D-04-0.191D-03 0.135D-02
 Coeff-Com: -0.114D-02-0.455D-03 0.237D-02 0.184D-02 0.998D-03-0.291D-02
 Coeff-Com: -0.423D-01 0.401D-01 0.258D-01-0.212D-02-0.260D+00 0.155D-01
 Coeff-Com:  0.618D+00 0.604D+00
 Coeff-En:   0.000D+00 0.000D+00 0.000D+00 0.000D+00 0.000D+00 0.000D+00
 Coeff-En:   0.000D+00 0.000D+00 0.000D+00 0.000D+00 0.000D+00 0.000D+00
 Coeff-En:   0.000D+00 0.000D+00 0.000D+00 0.000D+00 0.000D+00 0.000D+00
 Coeff-En:   0.000D+00 0.100D+01
 Coeff:      0.537D-03-0.519D-03-0.687D-04 0.897D-04-0.191D-03 0.135D-02
 Coeff:     -0.114D-02-0.454D-03 0.237D-02 0.183D-02 0.997D-03-0.290D-02
 Coeff:     -0.423D-01 0.400D-01 0.258D-01-0.212D-02-0.260D+00 0.155D-01
 Coeff:      0.616D+00 0.604D+00
 Gap=     0.157 Goal=   None    Shift=    0.000
 RMSDP=5.19D-05 MaxDP=1.38D-03 DE=-8.82D-05 OVMax= 4.69D-03

 Cycle  28  Pass 1  IDiag  1:
 RMSU=  1.71D-05    CP:  1.00D+00  1.54D+00
 E= -1105.36686209494     Delta-E=       -0.000045730646 Rises=F Damp=F
 DIIS: error= 1.53D-04 at cycle  23 NSaved=  20.
 NSaved=20 IEnMin=20 EnMin= -1105.36686209494     IErMin=20 ErrMin= 1.53D-04
 ErrMax= 1.53D-04  0.00D+00 EMaxC= 1.00D-01 BMatC= 4.57D-06 BMatP= 8.48D-06
 IDIUse=3 WtCom= 9.98D-01 WtEn= 1.53D-03
 Coeff-Com:  0.375D-03-0.105D-04-0.231D-04-0.138D-03 0.133D-05-0.449D-03
 Coeff-Com:  0.201D-03-0.199D-02-0.294D-02 0.251D-01 0.307D-01 0.109D-02
 Coeff-Com: -0.626D-01-0.902D-01 0.138D+00 0.136D+00-0.806D-01-0.252D+00
 Coeff-Com: -0.213D+00 0.137D+01
 Coeff-En:   0.000D+00 0.000D+00 0.000D+00 0.000D+00 0.000D+00 0.000D+00
 Coeff-En:   0.000D+00 0.000D+00 0.000D+00 0.000D+00 0.000D+00 0.000D+00
 Coeff-En:   0.000D+00 0.000D+00 0.000D+00 0.000D+00 0.000D+00 0.000D+00
 Coeff-En:   0.000D+00 0.100D+01
 Coeff:      0.374D-03-0.105D-04-0.231D-04-0.138D-03 0.133D-05-0.448D-03
 Coeff:      0.201D-03-0.199D-02-0.293D-02 0.250D-01 0.306D-01 0.109D-02
 Coeff:     -0.625D-01-0.901D-01 0.138D+00 0.136D+00-0.805D-01-0.252D+00
 Coeff:     -0.213D+00 0.137D+01
 Gap=     0.158 Goal=   None    Shift=    0.000
 RMSDP=4.80D-05 MaxDP=8.60D-04 DE=-4.57D-05 OVMax= 4.93D-03

 Cycle  29  Pass 1  IDiag  1:
 RMSU=  1.82D-05    CP:  1.00D+00  1.98D+00  2.21D+00
 E= -1105.36689720108     Delta-E=       -0.000035106140 Rises=F Damp=F
 DIIS: error= 1.04D-04 at cycle  24 NSaved=  20.
 NSaved=20 IEnMin=20 EnMin= -1105.36689720108     IErMin=20 ErrMin= 1.04D-04
 ErrMax= 1.04D-04  0.00D+00 EMaxC= 1.00D-01 BMatC= 2.81D-06 BMatP= 4.57D-06
 IDIUse=3 WtCom= 9.99D-01 WtEn= 1.04D-03
 Coeff-Com:  0.139D-03-0.148D-03-0.121D-03-0.105D-02 0.320D-03 0.745D-03
 Coeff-Com: -0.109D-02-0.485D-02 0.627D-02 0.748D-02-0.118D-01-0.384D-02
 Coeff-Com: -0.571D-01 0.111D+00 0.191D+00-0.155D+00-0.566D+00-0.634D+00
 Coeff-Com:  0.132D+01 0.795D+00
 Coeff-En:   0.000D+00 0.000D+00 0.000D+00 0.000D+00 0.000D+00 0.000D+00
 Coeff-En:   0.000D+00 0.000D+00 0.000D+00 0.000D+00 0.000D+00 0.000D+00
 Coeff-En:   0.000D+00 0.000D+00 0.000D+00 0.000D+00 0.000D+00 0.000D+00
 Coeff-En:   0.000D+00 0.100D+01
 Coeff:      0.139D-03-0.148D-03-0.120D-03-0.105D-02 0.319D-03 0.744D-03
 Coeff:     -0.109D-02-0.485D-02 0.626D-02 0.747D-02-0.118D-01-0.384D-02
 Coeff:     -0.570D-01 0.111D+00 0.191D+00-0.155D+00-0.566D+00-0.634D+00
 Coeff:      0.132D+01 0.795D+00
 Gap=     0.157 Goal=   None    Shift=    0.000
 RMSDP=8.36D-05 MaxDP=1.93D-03 DE=-3.51D-05 OVMax= 8.09D-03

 Cycle  30  Pass 1  IDiag  1:
 RMSU=  1.60D-05    CP:  1.00D+00  2.85D+00  3.00D+00  1.58D+00
 E= -1105.36694277841     Delta-E=       -0.000045577324 Rises=F Damp=F
 DIIS: error= 1.03D-04 at cycle  25 NSaved=  20.
 NSaved=20 IEnMin=20 EnMin= -1105.36694277841     IErMin=20 ErrMin= 1.03D-04
 ErrMax= 1.03D-04  0.00D+00 EMaxC= 1.00D-01 BMatC= 1.88D-06 BMatP= 2.81D-06
 IDIUse=3 WtCom= 9.99D-01 WtEn= 1.03D-03
 Coeff-Com:  0.140D-04-0.104D-03-0.909D-03 0.509D-03-0.245D-03 0.110D-02
 Coeff-Com:  0.102D-03-0.934D-02-0.112D-01-0.331D-01 0.661D-01 0.393D-01
 Coeff-Com: -0.133D-01-0.320D-01-0.563D-01-0.203D-01-0.451D-01-0.112D+00
 Coeff-Com:  0.128D+00 0.110D+01
 Coeff-En:   0.000D+00 0.000D+00 0.000D+00 0.000D+00 0.000D+00 0.000D+00
 Coeff-En:   0.000D+00 0.000D+00 0.000D+00 0.000D+00 0.000D+00 0.000D+00
 Coeff-En:   0.000D+00 0.000D+00 0.000D+00 0.000D+00 0.000D+00 0.000D+00
 Coeff-En:   0.000D+00 0.100D+01
 Coeff:      0.140D-04-0.103D-03-0.908D-03 0.509D-03-0.244D-03 0.110D-02
 Coeff:      0.102D-03-0.933D-02-0.112D-01-0.331D-01 0.661D-01 0.392D-01
 Coeff:     -0.133D-01-0.320D-01-0.563D-01-0.203D-01-0.451D-01-0.112D+00
 Coeff:      0.128D+00 0.110D+01
 Gap=     0.157 Goal=   None    Shift=    0.000
 RMSDP=4.27D-05 MaxDP=7.56D-04 DE=-4.56D-05 OVMax= 4.57D-03

 Cycle  31  Pass 1  IDiag  1:
 RMSU=  2.29D-05    CP:  1.00D+00  3.00D+00  3.00D+00  2.47D+00  2.16D+00
 E= -1105.36696087862     Delta-E=       -0.000018100217 Rises=F Damp=F
 DIIS: error= 9.92D-05 at cycle  26 NSaved=  20.
 NSaved=20 IEnMin=20 EnMin= -1105.36696087862     IErMin=20 ErrMin= 9.92D-05
 ErrMax= 9.92D-05  0.00D+00 EMaxC= 1.00D-01 BMatC= 1.37D-06 BMatP= 1.88D-06
 IDIUse=1 WtCom= 1.00D+00 WtEn= 0.00D+00
 Coeff-Com: -0.413D-04-0.421D-03 0.421D-03-0.302D-03 0.112D-02-0.859D-04
 Coeff-Com: -0.107D-01-0.102D-01-0.109D-03 0.471D-01 0.233D-01-0.655D-01
 Coeff-Com: -0.107D+00 0.199D-01 0.210D+00 0.242D+00-0.399D+00-0.219D+00
 Coeff-Com: -0.128D+00 0.140D+01
 Coeff:     -0.413D-04-0.421D-03 0.421D-03-0.302D-03 0.112D-02-0.859D-04
 Coeff:     -0.107D-01-0.102D-01-0.109D-03 0.471D-01 0.233D-01-0.655D-01
 Coeff:     -0.107D+00 0.199D-01 0.210D+00 0.242D+00-0.399D+00-0.219D+00
 Coeff:     -0.128D+00 0.140D+01
 Gap=     0.157 Goal=   None    Shift=    0.000
 RMSDP=4.39D-05 MaxDP=7.66D-04 DE=-1.81D-05 OVMax= 4.24D-03

 Cycle  32  Pass 1  IDiag  1:
 RMSU=  1.54D-05    CP:  1.00D+00  3.00D+00  3.00D+00  3.00D+00  3.00D+00
                    CP:  2.54D+00
 E= -1105.36697640378     Delta-E=       -0.000015525153 Rises=F Damp=F
 DIIS: error= 5.06D-05 at cycle  27 NSaved=  20.
 NSaved=20 IEnMin=20 EnMin= -1105.36697640378     IErMin=20 ErrMin= 5.06D-05
 ErrMax= 5.06D-05  0.00D+00 EMaxC= 1.00D-01 BMatC= 5.40D-07 BMatP= 1.37D-06
 IDIUse=1 WtCom= 1.00D+00 WtEn= 0.00D+00
 Coeff-Com:  0.207D-04 0.121D-03 0.425D-03-0.144D-03-0.273D-02-0.162D-02
 Coeff-Com: -0.628D-03 0.297D-01-0.169D-01-0.366D-01-0.264D-01-0.873D-02
 Coeff-Com:  0.916D-02 0.423D-01 0.107D+00 0.106D+00-0.112D+00-0.144D+01
 Coeff-Com:  0.832D+00 0.151D+01
 Coeff:      0.207D-04 0.121D-03 0.425D-03-0.144D-03-0.273D-02-0.162D-02
 Coeff:     -0.628D-03 0.297D-01-0.169D-01-0.366D-01-0.264D-01-0.873D-02
 Coeff:      0.916D-02 0.423D-01 0.107D+00 0.106D+00-0.112D+00-0.144D+01
 Coeff:      0.832D+00 0.151D+01
 Gap=     0.157 Goal=   None    Shift=    0.000
 RMSDP=8.41D-05 MaxDP=1.54D-03 DE=-1.55D-05 OVMax= 7.54D-03

 Cycle  33  Pass 1  IDiag  1:
 RMSU=  6.36D-05    CP:  1.00D+00  3.00D+00  3.00D+00  3.00D+00  3.00D+00
                    CP:  3.00D+00  3.00D+00
 E= -1105.36699359249     Delta-E=       -0.000017188708 Rises=F Damp=F
 DIIS: error= 2.13D-05 at cycle  28 NSaved=  20.
 NSaved=20 IEnMin=20 EnMin= -1105.36699359249     IErMin=20 ErrMin= 2.13D-05
 ErrMax= 2.13D-05  0.00D+00 EMaxC= 1.00D-01 BMatC= 1.28D-07 BMatP= 5.40D-07
 IDIUse=1 WtCom= 1.00D+00 WtEn= 0.00D+00
 Coeff-Com:  0.627D-04 0.965D-04-0.266D-04 0.556D-03 0.466D-03-0.242D-02
 Coeff-Com: -0.791D-02 0.423D-02 0.990D-02-0.760D-02-0.150D-01-0.156D-01
 Coeff-Com:  0.672D-01 0.635D-01-0.115D+00-0.279D-01-0.620D-01-0.179D-01
 Coeff-Com:  0.104D+00 0.102D+01
 Coeff:      0.627D-04 0.965D-04-0.266D-04 0.556D-03 0.466D-03-0.242D-02
 Coeff:     -0.791D-02 0.423D-02 0.990D-02-0.760D-02-0.150D-01-0.156D-01
 Coeff:      0.672D-01 0.635D-01-0.115D+00-0.279D-01-0.620D-01-0.179D-01
 Coeff:      0.104D+00 0.102D+01
 Gap=     0.157 Goal=   None    Shift=    0.000
 RMSDP=1.89D-05 MaxDP=3.47D-04 DE=-1.72D-05 OVMax= 1.69D-03

 Cycle  34  Pass 1  IDiag  1:
 RMSU=  8.94D-06    CP:  1.00D+00  3.00D+00  3.00D+00  3.00D+00  3.00D+00
                    CP:  3.00D+00  3.00D+00  1.26D+00
 E= -1105.36699572836     Delta-E=       -0.000002135876 Rises=F Damp=F
 DIIS: error= 1.63D-05 at cycle  29 NSaved=  20.
 NSaved=20 IEnMin=20 EnMin= -1105.36699572836     IErMin=20 ErrMin= 1.63D-05
 ErrMax= 1.63D-05  0.00D+00 EMaxC= 1.00D-01 BMatC= 5.76D-08 BMatP= 1.28D-07
 IDIUse=1 WtCom= 1.00D+00 WtEn= 0.00D+00
 Coeff-Com: -0.182D-03 0.124D-03 0.221D-02 0.139D-02-0.151D-02-0.208D-01
 Coeff-Com:  0.107D-01 0.308D-01 0.108D-01 0.414D-02-0.258D-01-0.614D-02
 Coeff-Com: -0.240D-01-0.132D+00 0.196D-01 0.799D+00-0.385D+00-0.785D+00
 Coeff-Com:  0.259D+00 0.124D+01
 Coeff:     -0.182D-03 0.124D-03 0.221D-02 0.139D-02-0.151D-02-0.208D-01
 Coeff:      0.107D-01 0.308D-01 0.108D-01 0.414D-02-0.258D-01-0.614D-02
 Coeff:     -0.240D-01-0.132D+00 0.196D-01 0.799D+00-0.385D+00-0.785D+00
 Coeff:      0.259D+00 0.124D+01
 Gap=     0.157 Goal=   None    Shift=    0.000
 RMSDP=1.70D-05 MaxDP=3.21D-04 DE=-2.14D-06 OVMax= 1.61D-03

 Cycle  35  Pass 1  IDiag  1:
 RMSU=  4.33D-06    CP:  1.00D+00  3.00D+00  3.00D+00  3.00D+00  3.00D+00
                    CP:  3.00D+00  3.00D+00  1.49D+00  1.84D+00
 E= -1105.36699719377     Delta-E=       -0.000001465411 Rises=F Damp=F
 DIIS: error= 1.54D-05 at cycle  30 NSaved=  20.
 NSaved=20 IEnMin=20 EnMin= -1105.36699719377     IErMin=20 ErrMin= 1.54D-05
 ErrMax= 1.54D-05  0.00D+00 EMaxC= 1.00D-01 BMatC= 4.94D-08 BMatP= 5.76D-08
 IDIUse=1 WtCom= 1.00D+00 WtEn= 0.00D+00
 Coeff-Com:  0.282D-03-0.412D-03-0.161D-02-0.730D-03 0.518D-02-0.347D-02
 Coeff-Com: -0.925D-03 0.438D-02 0.206D-01-0.352D-02-0.648D-01-0.158D-01
 Coeff-Com:  0.113D+00 0.739D-02-0.823D-01-0.487D-01 0.956D-01-0.375D+00
 Coeff-Com:  0.599D-01 0.129D+01
 Coeff:      0.282D-03-0.412D-03-0.161D-02-0.730D-03 0.518D-02-0.347D-02
 Coeff:     -0.925D-03 0.438D-02 0.206D-01-0.352D-02-0.648D-01-0.158D-01
 Coeff:      0.113D+00 0.739D-02-0.823D-01-0.487D-01 0.956D-01-0.375D+00
 Coeff:      0.599D-01 0.129D+01
 Gap=     0.157 Goal=   None    Shift=    0.000
 RMSDP=1.19D-05 MaxDP=2.18D-04 DE=-1.47D-06 OVMax= 1.13D-03

 Cycle  36  Pass 1  IDiag  1:
 RMSU=  2.51D-06    CP:  1.00D+00  3.00D+00  3.00D+00  3.00D+00  3.00D+00
                    CP:  3.00D+00  3.00D+00  1.63D+00  2.56D+00  2.01D+00
 E= -1105.36699801157     Delta-E=       -0.000000817801 Rises=F Damp=F
 DIIS: error= 8.30D-06 at cycle  31 NSaved=  20.
 NSaved=20 IEnMin=20 EnMin= -1105.36699801157     IErMin=20 ErrMin= 8.30D-06
 ErrMax= 8.30D-06  0.00D+00 EMaxC= 1.00D-01 BMatC= 2.08D-08 BMatP= 4.94D-08
 IDIUse=1 WtCom= 1.00D+00 WtEn= 0.00D+00
 Coeff-Com: -0.802D-03-0.889D-03 0.539D-03 0.747D-02-0.364D-02-0.720D-02
 Coeff-Com: -0.977D-02 0.361D-02-0.158D-03-0.244D-02 0.231D-01 0.588D-01
 Coeff-Com:  0.491D-02-0.297D+00 0.108D+00 0.284D+00-0.132D+00-0.458D+00
 Coeff-Com: -0.492D-01 0.147D+01
 Coeff:     -0.802D-03-0.889D-03 0.539D-03 0.747D-02-0.364D-02-0.720D-02
 Coeff:     -0.977D-02 0.361D-02-0.158D-03-0.244D-02 0.231D-01 0.588D-01
 Coeff:      0.491D-02-0.297D+00 0.108D+00 0.284D+00-0.132D+00-0.458D+00
 Coeff:     -0.492D-01 0.147D+01
 Gap=     0.157 Goal=   None    Shift=    0.000
 RMSDP=9.90D-06 MaxDP=1.66D-04 DE=-8.18D-07 OVMax= 8.94D-04

 Cycle  37  Pass 1  IDiag  1:
 RMSU=  2.15D-06    CP:  1.00D+00  3.00D+00  3.00D+00  3.00D+00  3.00D+00
                    CP:  3.00D+00  3.00D+00  1.72D+00  3.00D+00  3.00D+00
                    CP:  2.18D+00
 E= -1105.36699848765     Delta-E=       -0.000000476078 Rises=F Damp=F
 DIIS: error= 6.50D-06 at cycle  32 NSaved=  20.
 NSaved=20 IEnMin=20 EnMin= -1105.36699848765     IErMin=20 ErrMin= 6.50D-06
 ErrMax= 6.50D-06  0.00D+00 EMaxC= 1.00D-01 BMatC= 1.32D-08 BMatP= 2.08D-08
 IDIUse=1 WtCom= 1.00D+00 WtEn= 0.00D+00
 Coeff-Com:  0.780D-04 0.334D-03-0.226D-02 0.277D-02 0.197D-02-0.421D-02
 Coeff-Com: -0.289D-02-0.595D-02 0.196D-01 0.788D-02-0.155D-01 0.126D-01
 Coeff-Com: -0.958D-01 0.497D-01 0.558D-01 0.141D+00-0.198D+00-0.639D+00
 Coeff-Com:  0.725D+00 0.945D+00
 Coeff:      0.780D-04 0.334D-03-0.226D-02 0.277D-02 0.197D-02-0.421D-02
 Coeff:     -0.289D-02-0.595D-02 0.196D-01 0.788D-02-0.155D-01 0.126D-01
 Coeff:     -0.958D-01 0.497D-01 0.558D-01 0.141D+00-0.198D+00-0.639D+00
 Coeff:      0.725D+00 0.945D+00
 Gap=     0.157 Goal=   None    Shift=    0.000
 RMSDP=7.25D-06 MaxDP=1.18D-04 DE=-4.76D-07 OVMax= 6.30D-04

 Cycle  38  Pass 1  IDiag  1:
 RMSU=  4.07D-06    CP:  1.00D+00  3.00D+00  3.00D+00  3.00D+00  3.00D+00
                    CP:  3.00D+00  3.00D+00  1.79D+00  3.00D+00  3.00D+00
                    CP:  3.00D+00  2.54D+00
 E= -1105.36699869097     Delta-E=       -0.000000203318 Rises=F Damp=F
 DIIS: error= 4.30D-06 at cycle  33 NSaved=  20.
 NSaved=20 IEnMin=20 EnMin= -1105.36699869097     IErMin=20 ErrMin= 4.30D-06
 ErrMax= 4.30D-06  0.00D+00 EMaxC= 1.00D-01 BMatC= 4.75D-09 BMatP= 1.32D-08
 IDIUse=1 WtCom= 1.00D+00 WtEn= 0.00D+00
 Coeff-Com:  0.287D-03-0.312D-02 0.323D-03 0.985D-03 0.533D-02 0.576D-02
 Coeff-Com: -0.619D-02-0.123D-01-0.806D-02 0.137D-01 0.784D-02-0.381D-02
 Coeff-Com: -0.131D-01 0.529D-03 0.569D-01 0.790D-01-0.961D-01-0.381D+00
 Coeff-Com: -0.452D-01 0.140D+01
 Coeff:      0.287D-03-0.312D-02 0.323D-03 0.985D-03 0.533D-02 0.576D-02
 Coeff:     -0.619D-02-0.123D-01-0.806D-02 0.137D-01 0.784D-02-0.381D-02
 Coeff:     -0.131D-01 0.529D-03 0.569D-01 0.790D-01-0.961D-01-0.381D+00
 Coeff:     -0.452D-01 0.140D+01
 Gap=     0.157 Goal=   None    Shift=    0.000
 RMSDP=5.02D-06 MaxDP=7.98D-05 DE=-2.03D-07 OVMax= 4.24D-04

 Cycle  39  Pass 1  IDiag  1:
 RMSU=  2.81D-06    CP:  1.00D+00  3.00D+00  3.00D+00  3.00D+00  3.00D+00
                    CP:  3.00D+00  3.00D+00  1.83D+00  3.00D+00  3.00D+00
                    CP:  3.00D+00  3.00D+00  1.53D+00
 E= -1105.36699877705     Delta-E=       -0.000000086077 Rises=F Damp=F
 DIIS: error= 2.87D-06 at cycle  34 NSaved=  20.
 NSaved=20 IEnMin=20 EnMin= -1105.36699877705     IErMin=20 ErrMin= 2.87D-06
 ErrMax= 2.87D-06  0.00D+00 EMaxC= 1.00D-01 BMatC= 1.97D-09 BMatP= 4.75D-09
 IDIUse=1 WtCom= 1.00D+00 WtEn= 0.00D+00
 Coeff-Com: -0.203D-02 0.827D-03 0.720D-03 0.974D-03 0.119D-02-0.730D-03
 Coeff-Com: -0.113D-02-0.574D-02 0.616D-03-0.365D-02 0.365D-01-0.177D-01
 Coeff-Com: -0.276D-01 0.206D-01 0.822D-01 0.453D-01-0.187D+00-0.215D+00
 Coeff-Com:  0.477D-01 0.122D+01
 Coeff:     -0.203D-02 0.827D-03 0.720D-03 0.974D-03 0.119D-02-0.730D-03
 Coeff:     -0.113D-02-0.574D-02 0.616D-03-0.365D-02 0.365D-01-0.177D-01
 Coeff:     -0.276D-01 0.206D-01 0.822D-01 0.453D-01-0.187D+00-0.215D+00
 Coeff:      0.477D-01 0.122D+01
 Gap=     0.157 Goal=   None    Shift=    0.000
 RMSDP=1.94D-06 MaxDP=3.35D-05 DE=-8.61D-08 OVMax= 1.77D-04

 Cycle  40  Pass 1  IDiag  1:
 RMSU=  7.62D-07    CP:  1.00D+00  3.00D+00  3.00D+00  3.00D+00  3.00D+00
                    CP:  3.00D+00  3.00D+00  1.85D+00  3.00D+00  3.00D+00
                    CP:  3.00D+00  3.00D+00  1.56D+00  1.57D+00
 E= -1105.36699880116     Delta-E=       -0.000000024109 Rises=F Damp=F
 DIIS: error= 3.05D-06 at cycle  35 NSaved=  20.
 NSaved=20 IEnMin=20 EnMin= -1105.36699880116     IErMin=19 ErrMin= 2.87D-06
 ErrMax= 3.05D-06  0.00D+00 EMaxC= 1.00D-01 BMatC= 1.12D-09 BMatP= 1.97D-09
 IDIUse=1 WtCom= 1.00D+00 WtEn= 0.00D+00
 Coeff-Com:  0.440D-03-0.205D-04-0.160D-02-0.687D-03 0.801D-03 0.327D-02
 Coeff-Com:  0.317D-02-0.434D-02-0.108D-01 0.909D-02 0.106D-01-0.202D-02
 Coeff-Com: -0.391D-01 0.114D-01 0.647D-01 0.358D-01-0.109D+00-0.510D+00
 Coeff-Com:  0.866D+00 0.672D+00
 Coeff:      0.440D-03-0.205D-04-0.160D-02-0.687D-03 0.801D-03 0.327D-02
 Coeff:      0.317D-02-0.434D-02-0.108D-01 0.909D-02 0.106D-01-0.202D-02
 Coeff:     -0.391D-01 0.114D-01 0.647D-01 0.358D-01-0.109D+00-0.510D+00
 Coeff:      0.866D+00 0.672D+00
 Gap=     0.157 Goal=   None    Shift=    0.000
 RMSDP=1.53D-06 MaxDP=2.77D-05 DE=-2.41D-08 OVMax= 1.45D-04

 Cycle  41  Pass 1  IDiag  1:
 RMSU=  3.96D-07    CP:  1.00D+00  3.00D+00  3.00D+00  3.00D+00  3.00D+00
                    CP:  3.00D+00  3.00D+00  1.86D+00  3.00D+00  3.00D+00
                    CP:  3.00D+00  3.00D+00  1.71D+00  1.94D+00  1.42D+00
 E= -1105.36699881107     Delta-E=       -0.000000009909 Rises=F Damp=F
 DIIS: error= 2.21D-06 at cycle  36 NSaved=  20.
 NSaved=20 IEnMin=20 EnMin= -1105.36699881107     IErMin=20 ErrMin= 2.21D-06
 ErrMax= 2.21D-06  0.00D+00 EMaxC= 1.00D-01 BMatC= 9.85D-10 BMatP= 1.12D-09
 IDIUse=1 WtCom= 1.00D+00 WtEn= 0.00D+00
 Coeff-Com: -0.115D-03 0.396D-03 0.128D-02-0.200D-02-0.530D-02-0.741D-03
 Coeff-Com:  0.146D-01-0.233D-02-0.128D-01 0.391D-02 0.190D-01-0.469D-01
 Coeff-Com: -0.179D-01 0.919D-01 0.472D-01-0.733D-01-0.348D+00 0.250D+00
 Coeff-Com:  0.513D+00 0.568D+00
 Coeff:     -0.115D-03 0.396D-03 0.128D-02-0.200D-02-0.530D-02-0.741D-03
 Coeff:      0.146D-01-0.233D-02-0.128D-01 0.391D-02 0.190D-01-0.469D-01
 Coeff:     -0.179D-01 0.919D-01 0.472D-01-0.733D-01-0.348D+00 0.250D+00
 Coeff:      0.513D+00 0.568D+00
 Gap=     0.157 Goal=   None    Shift=    0.000
 RMSDP=5.69D-07 MaxDP=1.13D-05 DE=-9.91D-09 OVMax= 3.93D-05

 Cycle  42  Pass 1  IDiag  1:
 RMSU=  2.25D-07    CP:  1.00D+00  3.00D+00  3.00D+00  3.00D+00  3.00D+00
                    CP:  3.00D+00  3.00D+00  1.85D+00  3.00D+00  3.00D+00
                    CP:  3.00D+00  3.00D+00  1.72D+00  2.06D+00  1.82D+00
                    CP:  1.37D+00
 E= -1105.36699881563     Delta-E=       -0.000000004562 Rises=F Damp=F
 DIIS: error= 1.36D-06 at cycle  37 NSaved=  20.
 NSaved=20 IEnMin=20 EnMin= -1105.36699881563     IErMin=20 ErrMin= 1.36D-06
 ErrMax= 1.36D-06  0.00D+00 EMaxC= 1.00D-01 BMatC= 2.73D-10 BMatP= 9.85D-10
 IDIUse=1 WtCom= 1.00D+00 WtEn= 0.00D+00
 Coeff-Com: -0.501D-03-0.505D-03-0.180D-02 0.112D-02 0.601D-04 0.853D-02
 Coeff-Com:  0.452D-02-0.369D-01 0.808D-02 0.345D-01 0.199D-01-0.537D-01
 Coeff-Com: -0.739D-01 0.676D-01 0.136D+00 0.436D-01-0.478D+00-0.471D-01
 Coeff-Com:  0.836D-01 0.128D+01
 Coeff:     -0.501D-03-0.505D-03-0.180D-02 0.112D-02 0.601D-04 0.853D-02
 Coeff:      0.452D-02-0.369D-01 0.808D-02 0.345D-01 0.199D-01-0.537D-01
 Coeff:     -0.739D-01 0.676D-01 0.136D+00 0.436D-01-0.478D+00-0.471D-01
 Coeff:      0.836D-01 0.128D+01
 Gap=     0.157 Goal=   None    Shift=    0.000
 RMSDP=8.56D-07 MaxDP=1.45D-05 DE=-4.56D-09 OVMax= 7.04D-05

 Cycle  43  Pass 1  IDiag  1:
 RMSU=  2.06D-07    CP:  1.00D+00  3.00D+00  3.00D+00  3.00D+00  3.00D+00
                    CP:  3.00D+00  3.00D+00  1.85D+00  3.00D+00  3.00D+00
                    CP:  3.00D+00  3.00D+00  1.73D+00  2.26D+00  2.35D+00
                    CP:  2.21D+00  2.30D+00
 E= -1105.36699882039     Delta-E=       -0.000000004760 Rises=F Damp=F
 DIIS: error= 9.26D-07 at cycle  38 NSaved=  20.
 NSaved=20 IEnMin=20 EnMin= -1105.36699882039     IErMin=20 ErrMin= 9.26D-07
 ErrMax= 9.26D-07  0.00D+00 EMaxC= 1.00D-01 BMatC= 1.21D-10 BMatP= 2.73D-10
 IDIUse=1 WtCom= 1.00D+00 WtEn= 0.00D+00
 Coeff-Com:  0.214D-03-0.259D-04-0.207D-03-0.964D-04-0.803D-03-0.164D-02
 Coeff-Com:  0.117D-03 0.980D-04 0.110D-02-0.557D-02 0.121D-01 0.231D-01
 Coeff-Com: -0.353D-01-0.135D-01 0.777D-01-0.918D-01-0.347D-01-0.184D+00
 Coeff-Com: -0.144D+00 0.140D+01
 Coeff:      0.214D-03-0.259D-04-0.207D-03-0.964D-04-0.803D-03-0.164D-02
 Coeff:      0.117D-03 0.980D-04 0.110D-02-0.557D-02 0.121D-01 0.231D-01
 Coeff:     -0.353D-01-0.135D-01 0.777D-01-0.918D-01-0.347D-01-0.184D+00
 Coeff:     -0.144D+00 0.140D+01
 Gap=     0.157 Goal=   None    Shift=    0.000
 RMSDP=6.38D-07 MaxDP=1.21D-05 DE=-4.76D-09 OVMax= 6.57D-05

 Cycle  44  Pass 1  IDiag  1:
 RMSU=  2.31D-07    CP:  1.00D+00  3.00D+00  3.00D+00  3.00D+00  3.00D+00
                    CP:  3.00D+00  3.00D+00  1.85D+00  3.00D+00  3.00D+00
                    CP:  3.00D+00  3.00D+00  1.72D+00  2.34D+00  2.82D+00
                    CP:  2.83D+00  3.00D+00  1.89D+00
 E= -1105.36699882303     Delta-E=       -0.000000002640 Rises=F Damp=F
 DIIS: error= 7.99D-07 at cycle  39 NSaved=  20.
 NSaved=20 IEnMin=20 EnMin= -1105.36699882303     IErMin=20 ErrMin= 7.99D-07
 ErrMax= 7.99D-07  0.00D+00 EMaxC= 1.00D-01 BMatC= 6.94D-11 BMatP= 1.21D-10
 IDIUse=1 WtCom= 1.00D+00 WtEn= 0.00D+00
 Coeff-Com:  0.115D-02 0.116D-02 0.669D-03-0.564D-02-0.443D-02 0.141D-01
 Coeff-Com:  0.913D-03-0.121D-01-0.117D-01 0.250D-01 0.318D-01-0.478D-01
 Coeff-Com: -0.810D-01 0.528D-01 0.253D+00 0.605D-02-0.149D+00-0.795D+00
 Coeff-Com:  0.671D+00 0.105D+01
 Coeff:      0.115D-02 0.116D-02 0.669D-03-0.564D-02-0.443D-02 0.141D-01
 Coeff:      0.913D-03-0.121D-01-0.117D-01 0.250D-01 0.318D-01-0.478D-01
 Coeff:     -0.810D-01 0.528D-01 0.253D+00 0.605D-02-0.149D+00-0.795D+00
 Coeff:      0.671D+00 0.105D+01
 Gap=     0.157 Goal=   None    Shift=    0.000
 RMSDP=4.99D-07 MaxDP=9.14D-06 DE=-2.64D-09 OVMax= 4.89D-05

 Cycle  45  Pass 1  IDiag  1:
 RMSU=  2.60D-07    CP:  1.00D+00  3.00D+00  3.00D+00  3.00D+00  3.00D+00
                    CP:  3.00D+00  3.00D+00  1.85D+00  3.00D+00  3.00D+00
                    CP:  3.00D+00  3.00D+00  1.75D+00  2.37D+00  3.00D+00
                    CP:  3.00D+00  3.00D+00  2.86D+00  1.81D+00
 E= -1105.36699882469     Delta-E=       -0.000000001662 Rises=F Damp=F
 DIIS: error= 5.51D-07 at cycle  40 NSaved=  20.
 NSaved=20 IEnMin=20 EnMin= -1105.36699882469     IErMin=20 ErrMin= 5.51D-07
 ErrMax= 5.51D-07  0.00D+00 EMaxC= 1.00D-01 BMatC= 4.07D-11 BMatP= 6.94D-11
 IDIUse=1 WtCom= 1.00D+00 WtEn= 0.00D+00
 Coeff-Com:  0.639D-05 0.194D-04 0.755D-03-0.774D-03 0.344D-02-0.662D-03
 Coeff-Com: -0.268D-02-0.426D-02-0.695D-02-0.172D-02 0.435D-01 0.436D-03
 Coeff-Com: -0.932D-01 0.793D-01 0.550D-01 0.141D+00-0.166D+00-0.683D+00
 Coeff-Com:  0.241D+00 0.139D+01
 Coeff:      0.639D-05 0.194D-04 0.755D-03-0.774D-03 0.344D-02-0.662D-03
 Coeff:     -0.268D-02-0.426D-02-0.695D-02-0.172D-02 0.435D-01 0.436D-03
 Coeff:     -0.932D-01 0.793D-01 0.550D-01 0.141D+00-0.166D+00-0.683D+00
 Coeff:      0.241D+00 0.139D+01
 Gap=     0.157 Goal=   None    Shift=    0.000
 RMSDP=5.28D-07 MaxDP=1.04D-05 DE=-1.66D-09 OVMax= 5.54D-05

 Cycle  46  Pass 1  IDiag  1:
 Restarting incremental Fock formation.
 E= -1105.36699882603     Delta-E=       -0.000000001345 Rises=F Damp=F
 DIIS: error= 3.55D-07 at cycle  41 NSaved=  20.
 NSaved=20 IEnMin=20 EnMin= -1105.36699882603     IErMin=20 ErrMin= 3.55D-07
 ErrMax= 3.55D-07  0.00D+00 EMaxC= 1.00D-01 BMatC= 2.22D-11 BMatP= 4.07D-11
 IDIUse=1 WtCom= 1.00D+00 WtEn= 0.00D+00
 Coeff-Com:  0.918D-04 0.105D-03-0.949D-03 0.149D-02-0.158D-03-0.523D-03
 Coeff-Com:  0.349D-02-0.402D-02-0.746D-02 0.209D-01 0.373D-02-0.685D-01
 Coeff-Com:  0.103D-01 0.153D-01 0.121D+00 0.720D-01-0.580D+00-0.275D+00
 Coeff-Com:  0.679D+00 0.101D+01
 Coeff:      0.918D-04 0.105D-03-0.949D-03 0.149D-02-0.158D-03-0.523D-03
 Coeff:      0.349D-02-0.402D-02-0.746D-02 0.209D-01 0.373D-02-0.685D-01
 Coeff:      0.103D-01 0.153D-01 0.121D+00 0.720D-01-0.580D+00-0.275D+00
 Coeff:      0.679D+00 0.101D+01
 Gap=     0.157 Goal=   None    Shift=    0.000
 RMSDP=5.22D-07 MaxDP=1.02D-05 DE=-1.34D-09 OVMax= 5.41D-05

 Cycle  47  Pass 1  IDiag  1:
 RMSU=  5.22D-07    CP:  1.00D+00
 E= -1105.36699882683     Delta-E=       -0.000000000792 Rises=F Damp=F
 DIIS: error= 2.34D-07 at cycle  42 NSaved=  20.
 NSaved=20 IEnMin=20 EnMin= -1105.36699882683     IErMin=20 ErrMin= 2.34D-07
 ErrMax= 2.34D-07  0.00D+00 EMaxC= 1.00D-01 BMatC= 1.45D-11 BMatP= 2.22D-11
 IDIUse=1 WtCom= 1.00D+00 WtEn= 0.00D+00
 Coeff-Com: -0.283D-03 0.698D-03-0.218D-02-0.226D-03 0.168D-02 0.855D-02
 Coeff-Com: -0.438D-02-0.154D-01 0.125D-02 0.211D-01 0.500D-01-0.117D+00
 Coeff-Com: -0.536D-01 0.663D-04 0.265D+00 0.237D+00-0.426D+00-0.523D+00
 Coeff-Com:  0.275D+00 0.128D+01
 Coeff:     -0.283D-03 0.698D-03-0.218D-02-0.226D-03 0.168D-02 0.855D-02
 Coeff:     -0.438D-02-0.154D-01 0.125D-02 0.211D-01 0.500D-01-0.117D+00
 Coeff:     -0.536D-01 0.663D-04 0.265D+00 0.237D+00-0.426D+00-0.523D+00
 Coeff:      0.275D+00 0.128D+01
 Gap=     0.157 Goal=   None    Shift=    0.000
 RMSDP=2.71D-07 MaxDP=5.57D-06 DE=-7.92D-10 OVMax= 3.13D-05

 Cycle  48  Pass 1  IDiag  1:
 RMSU=  1.75D-07    CP:  1.00D+00  1.40D+00
 E= -1105.36699882710     Delta-E=       -0.000000000271 Rises=F Damp=F
 DIIS: error= 1.10D-07 at cycle  43 NSaved=  20.
 NSaved=20 IEnMin=20 EnMin= -1105.36699882710     IErMin=20 ErrMin= 1.10D-07
 ErrMax= 1.10D-07  0.00D+00 EMaxC= 1.00D-01 BMatC= 5.06D-12 BMatP= 1.45D-11
 IDIUse=1 WtCom= 1.00D+00 WtEn= 0.00D+00
 Coeff-Com:  0.662D-03-0.105D-02 0.793D-04 0.232D-03 0.266D-02-0.113D-02
 Coeff-Com: -0.669D-02-0.644D-02 0.104D-01 0.565D-01-0.787D-01-0.442D-01
 Coeff-Com: -0.262D-01 0.139D+00 0.318D+00-0.138D+00-0.518D+00-0.287D+00
 Coeff-Com:  0.718D+00 0.862D+00
 Coeff:      0.662D-03-0.105D-02 0.793D-04 0.232D-03 0.266D-02-0.113D-02
 Coeff:     -0.669D-02-0.644D-02 0.104D-01 0.565D-01-0.787D-01-0.442D-01
 Coeff:     -0.262D-01 0.139D+00 0.318D+00-0.138D+00-0.518D+00-0.287D+00
 Coeff:      0.718D+00 0.862D+00
 Gap=     0.157 Goal=   None    Shift=    0.000
 RMSDP=1.77D-07 MaxDP=3.50D-06 DE=-2.71D-10 OVMax= 2.02D-05

 Cycle  49  Pass 1  IDiag  1:
 RMSU=  5.89D-08    CP:  1.00D+00  1.67D+00  1.52D+00
 E= -1105.36699882718     Delta-E=       -0.000000000086 Rises=F Damp=F
 DIIS: error= 1.19D-07 at cycle  44 NSaved=  20.
 NSaved=20 IEnMin=20 EnMin= -1105.36699882718     IErMin=19 ErrMin= 1.10D-07
 ErrMax= 1.19D-07  0.00D+00 EMaxC= 1.00D-01 BMatC= 2.09D-12 BMatP= 5.06D-12
 IDIUse=1 WtCom= 1.00D+00 WtEn= 0.00D+00
 Coeff-Com:  0.848D-04-0.199D-03-0.524D-03-0.207D-03 0.993D-03 0.807D-03
 Coeff-Com: -0.627D-02 0.280D-02 0.287D-01-0.278D-01-0.191D-01-0.242D-01
 Coeff-Com:  0.153D-01 0.106D+00 0.572D-01-0.158D+00-0.183D+00-0.518D-01
 Coeff-Com:  0.310D+00 0.949D+00
 Coeff:      0.848D-04-0.199D-03-0.524D-03-0.207D-03 0.993D-03 0.807D-03
 Coeff:     -0.627D-02 0.280D-02 0.287D-01-0.278D-01-0.191D-01-0.242D-01
 Coeff:      0.153D-01 0.106D+00 0.572D-01-0.158D+00-0.183D+00-0.518D-01
 Coeff:      0.310D+00 0.949D+00
 Gap=     0.157 Goal=   None    Shift=    0.000
 RMSDP=1.13D-07 MaxDP=1.95D-06 DE=-8.64D-11 OVMax= 1.04D-05

 Cycle  50  Pass 1  IDiag  1:
 RMSU=  4.81D-08    CP:  1.00D+00  1.85D+00  1.66D+00  5.69D-01
 E= -1105.36699882721     Delta-E=       -0.000000000032 Rises=F Damp=F
 DIIS: error= 7.48D-08 at cycle  45 NSaved=  20.
 NSaved=20 IEnMin=20 EnMin= -1105.36699882721     IErMin=20 ErrMin= 7.48D-08
 ErrMax= 7.48D-08  0.00D+00 EMaxC= 1.00D-01 BMatC= 6.44D-13 BMatP= 2.09D-12
 IDIUse=1 WtCom= 1.00D+00 WtEn= 0.00D+00
 Coeff-Com:  0.613D-04-0.151D-03-0.581D-04 0.249D-03 0.164D-02-0.118D-02
 Coeff-Com: -0.111D-02-0.105D-01 0.134D-01 0.123D-01 0.229D-01-0.208D-01
 Coeff-Com: -0.163D+00 0.727D-01 0.178D+00 0.120D+00-0.300D+00-0.324D+00
 Coeff-Com:  0.156D+00 0.124D+01
 Coeff:      0.613D-04-0.151D-03-0.581D-04 0.249D-03 0.164D-02-0.118D-02
 Coeff:     -0.111D-02-0.105D-01 0.134D-01 0.123D-01 0.229D-01-0.208D-01
 Coeff:     -0.163D+00 0.727D-01 0.178D+00 0.120D+00-0.300D+00-0.324D+00
 Coeff:      0.156D+00 0.124D+01
 Gap=     0.157 Goal=   None    Shift=    0.000
 RMSDP=3.98D-08 MaxDP=8.91D-07 DE=-3.23D-11 OVMax= 2.96D-06

 Cycle  51  Pass 1  IDiag  1:
 RMSU=  1.87D-08    CP:  1.00D+00  1.89D+00  1.77D+00  5.21D-01  1.45D+00
 E= -1105.36699882723     Delta-E=       -0.000000000015 Rises=F Damp=F
 DIIS: error= 5.12D-08 at cycle  46 NSaved=  20.
 NSaved=20 IEnMin=20 EnMin= -1105.36699882723     IErMin=20 ErrMin= 5.12D-08
 ErrMax= 5.12D-08  0.00D+00 EMaxC= 1.00D-01 BMatC= 2.90D-13 BMatP= 6.44D-13
 IDIUse=1 WtCom= 1.00D+00 WtEn= 0.00D+00
 Coeff-Com:  0.288D-04 0.240D-03-0.178D-03 0.476D-03 0.926D-03 0.173D-03
 Coeff-Com: -0.154D-01 0.118D-01 0.112D-01 0.211D-01-0.924D-02-0.148D+00
 Coeff-Com:  0.385D-01 0.161D+00 0.149D+00-0.203D+00-0.297D+00-0.931D-01
 Coeff-Com:  0.665D+00 0.706D+00
 Coeff:      0.288D-04 0.240D-03-0.178D-03 0.476D-03 0.926D-03 0.173D-03
 Coeff:     -0.154D-01 0.118D-01 0.112D-01 0.211D-01-0.924D-02-0.148D+00
 Coeff:      0.385D-01 0.161D+00 0.149D+00-0.203D+00-0.297D+00-0.931D-01
 Coeff:      0.665D+00 0.706D+00
 Gap=     0.157 Goal=   None    Shift=    0.000
 RMSDP=1.77D-08 MaxDP=3.91D-07 DE=-1.55D-11 OVMax= 1.53D-06

 Cycle  52  Pass 1  IDiag  1:
 RMSU=  5.27D-09    CP:  1.00D+00  1.90D+00  1.76D+00  4.84D-01  1.72D+00
                    CP:  1.33D+00
 E= -1105.36699882723     Delta-E=        0.000000000000 Rises=F Damp=F
 DIIS: error= 3.61D-08 at cycle  47 NSaved=  20.
 NSaved=20 IEnMin=19 EnMin= -1105.36699882723     IErMin=20 ErrMin= 3.61D-08
 ErrMax= 3.61D-08  0.00D+00 EMaxC= 1.00D-01 BMatC= 1.14D-13 BMatP= 2.90D-13
 IDIUse=1 WtCom= 1.00D+00 WtEn= 0.00D+00
 Coeff-Com:  0.425D-03-0.361D-03-0.944D-03 0.120D-02 0.130D-02-0.218D-02
 Coeff-Com: -0.345D-02-0.968D-04 0.219D-02 0.114D-01-0.107D-02-0.225D-01
 Coeff-Com: -0.122D-01 0.279D-01 0.468D-01-0.144D-01-0.965D-01-0.270D+00
 Coeff-Com:  0.416D+00 0.916D+00
 Coeff:      0.425D-03-0.361D-03-0.944D-03 0.120D-02 0.130D-02-0.218D-02
 Coeff:     -0.345D-02-0.968D-04 0.219D-02 0.114D-01-0.107D-02-0.225D-01
 Coeff:     -0.122D-01 0.279D-01 0.468D-01-0.144D-01-0.965D-01-0.270D+00
 Coeff:      0.416D+00 0.916D+00
 Gap=     0.157 Goal=   None    Shift=    0.000
 RMSDP=1.52D-08 MaxDP=4.03D-07 DE= 4.55D-13 OVMax= 1.06D-06

 Cycle  53  Pass 1  IDiag  1:
 RMSU=  4.42D-09    CP:  1.00D+00  1.92D+00  1.78D+00  4.62D-01  1.88D+00
                    CP:  1.63D+00  1.69D+00
 E= -1105.36699882724     Delta-E=       -0.000000000012 Rises=F Damp=F
 DIIS: error= 2.01D-08 at cycle  48 NSaved=  20.
 NSaved=20 IEnMin=20 EnMin= -1105.36699882724     IErMin=20 ErrMin= 2.01D-08
 ErrMax= 2.01D-08  0.00D+00 EMaxC= 1.00D-01 BMatC= 5.08D-14 BMatP= 1.14D-13
 IDIUse=1 WtCom= 1.00D+00 WtEn= 0.00D+00
 Coeff-Com:  0.451D-04-0.720D-03-0.145D-03 0.107D-02 0.504D-02-0.561D-02
 Coeff-Com: -0.537D-02-0.798D-02 0.103D-01 0.546D-01-0.227D-01-0.620D-01
 Coeff-Com: -0.433D-01 0.810D-01 0.906D-01 0.463D-01-0.417D+00-0.160D+00
 Coeff-Com:  0.408D+00 0.103D+01
 Coeff:      0.451D-04-0.720D-03-0.145D-03 0.107D-02 0.504D-02-0.561D-02
 Coeff:     -0.537D-02-0.798D-02 0.103D-01 0.546D-01-0.227D-01-0.620D-01
 Coeff:     -0.433D-01 0.810D-01 0.906D-01 0.463D-01-0.417D+00-0.160D+00
 Coeff:      0.408D+00 0.103D+01
 Gap=     0.157 Goal=   None    Shift=    0.000
 RMSDP=1.02D-08 MaxDP=3.56D-07 DE=-1.18D-11 OVMax= 9.15D-07

 Cycle  54  Pass 1  IDiag  1:
 RMSU=  2.66D-09    CP:  1.00D+00  1.92D+00  1.81D+00  4.92D-01  1.98D+00
                    CP:  1.95D+00  2.29D+00  1.55D+00
 E= -1105.36699882723     Delta-E=        0.000000000009 Rises=F Damp=F
 DIIS: error= 1.25D-08 at cycle  49 NSaved=  20.
 NSaved=20 IEnMin=19 EnMin= -1105.36699882724     IErMin=20 ErrMin= 1.25D-08
 ErrMax= 1.25D-08  0.00D+00 EMaxC= 1.00D-01 BMatC= 2.07D-14 BMatP= 5.08D-14
 IDIUse=1 WtCom= 1.00D+00 WtEn= 0.00D+00
 Coeff-Com: -0.125D-03 0.154D-04 0.165D-04 0.147D-02 0.338D-03-0.213D-02
 Coeff-Com: -0.342D-02 0.318D-03 0.145D-01-0.415D-02-0.112D-01-0.211D-01
 Coeff-Com:  0.195D-01 0.368D-01 0.608D-01-0.112D+00-0.205D+00-0.670D-01
 Coeff-Com:  0.396D+00 0.897D+00
 Coeff:     -0.125D-03 0.154D-04 0.165D-04 0.147D-02 0.338D-03-0.213D-02
 Coeff:     -0.342D-02 0.318D-03 0.145D-01-0.415D-02-0.112D-01-0.211D-01
 Coeff:      0.195D-01 0.368D-01 0.608D-01-0.112D+00-0.205D+00-0.670D-01
 Coeff:      0.396D+00 0.897D+00
 Gap=     0.157 Goal=   None    Shift=    0.000
 RMSDP=5.38D-09 MaxDP=1.68D-07 DE= 8.64D-12 OVMax= 4.16D-07

 SCF Done:  E(RwB97XD) =  -1105.36699883     A.U. after   54 cycles
            NFock= 54  Conv=0.54D-08     -V/T= 2.0043
 KE= 1.100646144573D+03 PE=-5.428781887120D+03 EE= 1.740667521482D+03
 Leave Link  502 at Wed Jan 12 16:48:15 2022, MaxMem=   402653184 cpu:            3264.7 elap:             551.8
 (Enter /work/01114/jfonner/frontera/gaussian/16rC.01/g16/l601.exe)
 Copying SCF densities to generalized density rwf, IOpCl= 0 IROHF=0.

 **********************************************************************

            Population analysis using the SCF Density.

 **********************************************************************

 Orbital symmetries:
       Occupied  (A) (A) (A) (A) (A) (A) (A) (A) (A) (A) (A) (A)
                 (A) (A) (A) (A) (A) (A) (A) (A) (A) (A) (A) (A)
                 (A) (A) (A) (A) (A) (A) (A) (A) (A) (A) (A) (A)
                 (A) (A) (A) (A) (A) (A) (A) (A) (A) (A) (A) (A)
                 (A) (A) (A) (A) (A) (A) (A) (A) (A) (A) (A) (A)
                 (A) (A) (A) (A) (A) (A) (A) (A) (A) (A) (A)
       Virtual   (A) (A) (A) (A) (A) (A) (A) (A) (A) (A) (A) (A)
                 (A) (A) (A) (A) (A) (A) (A) (A) (A) (A) (A) (A)
                 (A) (A) (A) (A) (A) (A) (A) (A) (A) (A) (A) (A)
                 (A) (A) (A) (A) (A) (A) (A) (A) (A) (A) (A) (A)
                 (A) (A) (A) (A) (A) (A) (A) (A) (A) (A) (A) (A)
                 (A) (A) (A) (A) (A) (A) (A) (A) (A) (A) (A) (A)
                 (A) (A) (A) (A) (A) (A) (A) (A) (A) (A) (A) (A)
                 (A) (A) (A) (A) (A) (A) (A) (A) (A) (A) (A) (A)
                 (A) (A) (A) (A) (A) (A) (A) (A) (A) (A) (A) (A)
                 (A) (A) (A) (A) (A) (A) (A) (A) (A) (A) (A) (A)
                 (A) (A) (A) (A) (A) (A) (A) (A) (A)
 The electronic state is 1-A.
 Alpha  occ. eigenvalues --  -20.26786 -20.24751 -20.24394 -20.23815 -20.18246
 Alpha  occ. eigenvalues --  -20.17443 -15.45380 -15.43346 -15.36864 -11.41109
 Alpha  occ. eigenvalues --  -11.39769 -11.36561 -11.35107 -11.34456 -11.34322
 Alpha  occ. eigenvalues --  -11.33420 -11.32354 -11.31624 -11.31344 -11.30799
 Alpha  occ. eigenvalues --  -11.28356 -11.23043  -2.15859  -2.12587  -2.08402
 Alpha  occ. eigenvalues --   -2.07047  -2.03032  -2.00583  -1.94303  -1.93060
 Alpha  occ. eigenvalues --   -1.91599  -1.82898  -1.80451  -1.79065  -1.72832
 Alpha  occ. eigenvalues --   -1.69702  -1.62324  -1.61103  -1.58299  -1.56262
 Alpha  occ. eigenvalues --   -1.54490  -1.48873  -1.48449  -1.47049  -1.45812
 Alpha  occ. eigenvalues --   -1.43514  -1.43135  -1.41668  -1.41337  -1.40892
 Alpha  occ. eigenvalues --   -1.40630  -1.39412  -1.38336  -1.37936  -1.35224
 Alpha  occ. eigenvalues --   -1.34622  -1.33019  -1.29801  -1.29372  -1.28798
 Alpha  occ. eigenvalues --   -1.28338  -1.27282  -1.26750  -1.25728  -1.24811
 Alpha  occ. eigenvalues --   -1.23842  -1.23136  -1.22255  -1.21780  -1.21202
 Alpha  occ. eigenvalues --   -1.19720
 Alpha virt. eigenvalues --   -1.04059  -1.03567  -1.00981  -0.99899  -0.95059
 Alpha virt. eigenvalues --   -0.94303  -0.93743  -0.93616  -0.92627  -0.90821
 Alpha virt. eigenvalues --   -0.88560  -0.86782  -0.84366  -0.81186  -0.79230
 Alpha virt. eigenvalues --   -0.79090  -0.77205  -0.74912  -0.62862  -0.62094
 Alpha virt. eigenvalues --   -0.59530  -0.58635  -0.57250  -0.55689  -0.54889
 Alpha virt. eigenvalues --   -0.53534  -0.52860  -0.52382  -0.51798  -0.49545
 Alpha virt. eigenvalues --   -0.48678  -0.47588  -0.46892  -0.45155  -0.44187
 Alpha virt. eigenvalues --   -0.40332  -0.38448  -0.37033  -0.35902  -0.34267
 Alpha virt. eigenvalues --   -0.28386  -0.27632  -0.25949  -0.24941  -0.24399
 Alpha virt. eigenvalues --   -0.23212  -0.22520  -0.22164  -0.20711  -0.19597
 Alpha virt. eigenvalues --   -0.19308  -0.18754  -0.17987  -0.17735  -0.16859
 Alpha virt. eigenvalues --   -0.16323  -0.14698  -0.14424  -0.12964  -0.12717
 Alpha virt. eigenvalues --   -0.12366  -0.11846  -0.11119  -0.10603  -0.10439
 Alpha virt. eigenvalues --   -0.09269  -0.08868  -0.08303  -0.07253  -0.06129
 Alpha virt. eigenvalues --   -0.05614  -0.04732  -0.04368  -0.03222  -0.02737
 Alpha virt. eigenvalues --   -0.01796  -0.01159   0.00665   0.03005   0.04636
 Alpha virt. eigenvalues --    0.06267   0.08049   0.09478   0.11700   0.12886
 Alpha virt. eigenvalues --    0.14662   0.16446   0.17359   0.19570   0.21832
 Alpha virt. eigenvalues --    0.22407   0.22646   0.23509   0.23764   0.24341
 Alpha virt. eigenvalues --    0.25457   0.26384   0.27113   0.27469   0.29338
 Alpha virt. eigenvalues --    0.30404   0.31626   0.32131   0.33971   0.34913
 Alpha virt. eigenvalues --    0.36567   0.38540   0.40346   0.42475   0.44120
 Alpha virt. eigenvalues --    0.45365   0.46090   0.50049   0.50269   0.52312
 Alpha virt. eigenvalues --    0.53310   0.58457   0.60827   0.64226   0.71884
 Alpha virt. eigenvalues --    0.81731   0.82561   0.92312   0.97149   1.00366
 Alpha virt. eigenvalues --    1.05287   1.16169   1.19852   1.23126
          Condensed to atoms (all electrons):
               1          2          3          4          5          6
     1  C    4.885594   0.308077   0.136295  -0.027880   0.001400   0.000390
     2  O    0.308077   7.606450  -0.052870   0.001058  -0.000801   0.000000
     3  N    0.136295  -0.052870   6.925788   0.228662  -0.072910  -0.006169
     4  C   -0.027880   0.001058   0.228662   5.843169  -0.009586  -0.093582
     5  C    0.001400  -0.000801  -0.072910  -0.009586   5.250233   0.382114
     6  O    0.000390   0.000000  -0.006169  -0.093582   0.382114   7.929424
     7  N    0.000501   0.000068  -0.004949  -0.161113   0.144398  -0.145844
     8  C   -0.000021  -0.000001  -0.000417   0.007380  -0.063349  -0.008205
     9  C    0.000000   0.000000  -0.000005  -0.000168   0.004833  -0.000129
    10  O    0.000000   0.000000  -0.000000  -0.000010   0.000431  -0.000007
    11  N    0.000000   0.000000   0.000000   0.000000   0.000519  -0.000007
    12  C   -0.000000  -0.000000  -0.000000  -0.000000  -0.000012   0.000001
    13  C    0.003789   0.001125  -0.058898   0.082570  -0.059599   0.011389
    14  O    0.001685  -0.000178  -0.002298  -0.046917   0.003070  -0.000024
    15  C   -0.000029  -0.000010   0.002000  -0.033058   0.009873  -0.000848
    16  C    0.000003   0.000000   0.000035  -0.000453   0.000793   0.000540
    17  C   -0.000000  -0.000000  -0.000000  -0.000000  -0.000077   0.000000
    18  C    0.000007   0.000000  -0.000026   0.000017   0.001159   0.000113
    19  C    0.000000   0.000000   0.000000  -0.000000   0.000000   0.000000
    20  O   -0.000000   0.000000  -0.000000   0.000000   0.000000   0.000000
    21  O   -0.000000   0.000000  -0.000000   0.000000   0.000000   0.000000
    22  C    0.000000   0.000000  -0.000000   0.000000  -0.000000   0.000000
    23  H    0.305279  -0.032762  -0.044087   0.003808  -0.000035   0.000013
               7          8          9         10         11         12
     1  C    0.000501  -0.000021   0.000000   0.000000   0.000000  -0.000000
     2  O    0.000068  -0.000001   0.000000   0.000000   0.000000  -0.000000
     3  N   -0.004949  -0.000417  -0.000005  -0.000000   0.000000  -0.000000
     4  C   -0.161113   0.007380  -0.000168  -0.000010   0.000000  -0.000000
     5  C    0.144398  -0.063349   0.004833   0.000431   0.000519  -0.000012
     6  O   -0.145844  -0.008205  -0.000129  -0.000007  -0.000007   0.000001
     7  N    7.255776   0.309273  -0.074041  -0.002808   0.003369  -0.000262
     8  C    0.309273   5.353838   0.190995  -0.111902  -0.182934   0.007456
     9  C   -0.074041   0.190995   5.151399   0.444920  -0.055352  -0.045554
    10  O   -0.002808  -0.111902   0.444920   7.842035  -0.109647  -0.005770
    11  N    0.003369  -0.182934  -0.055352  -0.109647   7.316833   0.251807
    12  C   -0.000262   0.007456  -0.045554  -0.005770   0.251807   6.050523
    13  C   -0.001222  -0.000315   0.000027   0.000000  -0.000000   0.000000
    14  O   -0.000019   0.000000  -0.000000   0.000000  -0.000000  -0.000000
    15  C   -0.000077   0.000001   0.000006  -0.000002  -0.000000  -0.000000
    16  C   -0.087129   0.238310  -0.070931   0.006947   0.004456  -0.000409
    17  C    0.001463  -0.007166   0.002945  -0.001910   0.001825  -0.000347
    18  C   -0.003456  -0.000388   0.000423  -0.000051  -0.000111   0.000001
    19  C   -0.000001  -0.000186   0.001121  -0.000346  -0.036303   0.000728
    20  O    0.000000  -0.000009   0.001318   0.000002   0.010006  -0.120746
    21  O    0.000000   0.000000   0.000330  -0.000007   0.002378  -0.092281
    22  C    0.000001   0.000008   0.000231  -0.000489  -0.007088  -0.140364
    23  H    0.000004  -0.000000   0.000000   0.000000   0.000000  -0.000000
              13         14         15         16         17         18
     1  C    0.003789   0.001685  -0.000029   0.000003  -0.000000   0.000007
     2  O    0.001125  -0.000178  -0.000010   0.000000  -0.000000   0.000000
     3  N   -0.058898  -0.002298   0.002000   0.000035  -0.000000  -0.000026
     4  C    0.082570  -0.046917  -0.033058  -0.000453  -0.000000   0.000017
     5  C   -0.059599   0.003070   0.009873   0.000793  -0.000077   0.001159
     6  O    0.011389  -0.000024  -0.000848   0.000540   0.000000   0.000113
     7  N   -0.001222  -0.000019  -0.000077  -0.087129   0.001463  -0.003456
     8  C   -0.000315   0.000000   0.000001   0.238310  -0.007166  -0.000388
     9  C    0.000027  -0.000000   0.000006  -0.070931   0.002945   0.000423
    10  O    0.000000   0.000000  -0.000002   0.006947  -0.001910  -0.000051
    11  N   -0.000000  -0.000000  -0.000000   0.004456   0.001825  -0.000111
    12  C    0.000000  -0.000000  -0.000000  -0.000409  -0.000347   0.000001
    13  C    5.756146   0.160669  -0.150415  -0.000005   0.000000  -0.000000
    14  O    0.160669   7.798302  -0.003772   0.000000  -0.000000   0.000000
    15  C   -0.150415  -0.003772   5.385056   0.000001  -0.000000  -0.000000
    16  C   -0.000005   0.000000   0.000001   6.308194  -0.085148  -0.092803
    17  C    0.000000  -0.000000  -0.000000  -0.085148   5.429222  -0.009269
    18  C   -0.000000   0.000000  -0.000000  -0.092803  -0.009269   5.354561
    19  C    0.000000  -0.000000   0.000000  -0.000023   0.000482  -0.000000
    20  O    0.000000   0.000000  -0.000000   0.000003   0.000306   0.000000
    21  O    0.000000   0.000000  -0.000000  -0.000000  -0.000009  -0.000000
    22  C    0.000000   0.000000  -0.000000  -0.000002   0.000002   0.000000
    23  H   -0.000028  -0.000054  -0.000001   0.000000  -0.000000   0.000001
              19         20         21         22         23
     1  C    0.000000  -0.000000  -0.000000   0.000000   0.305279
     2  O    0.000000   0.000000   0.000000   0.000000  -0.032762
     3  N    0.000000  -0.000000  -0.000000  -0.000000  -0.044087
     4  C   -0.000000   0.000000   0.000000   0.000000   0.003808
     5  C    0.000000   0.000000   0.000000  -0.000000  -0.000035
     6  O    0.000000   0.000000   0.000000   0.000000   0.000013
     7  N   -0.000001   0.000000   0.000000   0.000001   0.000004
     8  C   -0.000186  -0.000009   0.000000   0.000008  -0.000000
     9  C    0.001121   0.001318   0.000330   0.000231   0.000000
    10  O   -0.000346   0.000002  -0.000007  -0.000489   0.000000
    11  N   -0.036303   0.010006   0.002378  -0.007088   0.000000
    12  C    0.000728  -0.120746  -0.092281  -0.140364  -0.000000
    13  C    0.000000   0.000000   0.000000   0.000000  -0.000028
    14  O   -0.000000   0.000000   0.000000   0.000000  -0.000054
    15  C    0.000000  -0.000000  -0.000000  -0.000000  -0.000001
    16  C   -0.000023   0.000003  -0.000000  -0.000002   0.000000
    17  C    0.000482   0.000306  -0.000009   0.000002  -0.000000
    18  C   -0.000000   0.000000  -0.000000   0.000000   0.000001
    19  C    5.020169   0.257941   0.178566  -0.022808   0.000000
    20  O    0.257941   7.827467  -0.042889  -0.000029  -0.000000
    21  O    0.178566  -0.042889   7.741040   0.001632   0.000000
    22  C   -0.022808  -0.000029   0.001632   5.250660  -0.000000
    23  H    0.000000  -0.000000   0.000000  -0.000000   0.259845
 Mulliken charges:
               1
     1  C    0.384910
     2  O    0.169842
     3  N   -0.050151
     4  C    0.206103
     5  C    0.407545
     6  O   -0.069171
     7  N   -0.233931
     8  C    0.267632
     9  C    0.447631
    10  O   -0.061388
    11  N   -0.199750
    12  C    0.095229
    13  C    0.254768
    14  O    0.089536
    15  C    0.791276
    16  C   -0.222379
    17  C    0.667681
    18  C    0.749824
    19  C    0.600661
    20  O    0.066629
    21  O    0.211240
    22  C    0.918246
    23  H    0.508018
 Sum of Mulliken charges =   6.00000
 Mulliken charges with hydrogens summed into heavy atoms:
               1
     1  C    0.892927
     2  O    0.169842
     3  N   -0.050151
     4  C    0.206103
     5  C    0.407545
     6  O   -0.069171
     7  N   -0.233931
     8  C    0.267632
     9  C    0.447631
    10  O   -0.061388
    11  N   -0.199750
    12  C    0.095229
    13  C    0.254768
    14  O    0.089536
    15  C    0.791276
    16  C   -0.222379
    17  C    0.667681
    18  C    0.749824
    19  C    0.600661
    20  O    0.066629
    21  O    0.211240
    22  C    0.918246
 Electronic spatial extent (au):  <R**2>=           7642.6870
 Charge=              6.0000 electrons
 Dipole moment (field-independent basis, Debye):
    X=             -0.2230    Y=             -0.8159    Z=             -1.3238  Tot=              1.5709
 Quadrupole moment (field-independent basis, Debye-Ang):
   XX=            288.5537   YY=             19.4197   ZZ=           -101.0497
   XY=            -23.9463   XZ=             -1.8233   YZ=             -3.1059
 Traceless Quadrupole moment (field-independent basis, Debye-Ang):
   XX=            219.5791   YY=            -49.5548   ZZ=           -170.0243
   XY=            -23.9463   XZ=             -1.8233   YZ=             -3.1059
 Octapole moment (field-independent basis, Debye-Ang**2):
  XXX=            -54.5859  YYY=             39.8177  ZZZ=              8.5664  XYY=              4.9150
  XXY=           -132.1181  XXZ=             47.4355  XZZ=             -0.2969  YZZ=             -1.9336
  YYZ=            -23.1538  XYZ=             -9.6509
 Hexadecapole moment (field-independent basis, Debye-Ang**3):
 XXXX=           1615.7329 YYYY=           -535.8571 ZZZZ=           -431.3946 XXXY=          -1276.0029
 XXXZ=            -13.8474 YYYX=             71.8739 YYYZ=            -42.4712 ZZZX=            -18.7778
 ZZZY=              3.4234 XXYY=           -385.5798 XXZZ=          -1124.0691 YYZZ=           -313.4491
 XXYZ=             51.3592 YYXZ=            -11.6592 ZZXY=            -11.7025
 N-N= 1.482101222237D+03 E-N=-5.428781887349D+03  KE= 1.100646144573D+03
 No NMR shielding tensors so no spin-rotation constants.
 Leave Link  601 at Wed Jan 12 16:48:19 2022, MaxMem=   402653184 cpu:              42.2 elap:               4.0
 (Enter /work/01114/jfonner/frontera/gaussian/16rC.01/g16/l9999.exe)
 Unable to Open any file for archive entry.
 1\1\GINC-C205-019\SP\RwB97XD\6-31G\C13H1N3O6(6+)\SA748948\12-Jan-2022\
 0\\#p int=acc2e=12 wb97xd/6-31g\\Atom number=23\\6,1\C,0,3.424,0.965,1
 7.631\O,0,3.136,2.11,17.612\N,0,3.173,0.129,18.647\C,0,2.559,0.516,19.
 903\C,0,3.35,-0.122,21.014\O,0,3.366,-1.339,21.14\N,0,4.067,0.688,21.7
 68\C,0,4.888,0.205,22.851\C,0,4.35,0.769,24.174\O,0,4.161,1.981,24.269
 \N,0,4.065,-0.12,25.151\C,0,3.72,0.313,26.515\C,0,1.138,-0.021,19.983\
 O,0,0.393,0.394,18.824\C,0,0.486,0.501,21.167\C,0,6.362,0.614,22.652\C
 ,0,7.152,0.297,23.874\C,0,6.953,-0.121,21.455\C,0,4.941,0.14,27.42\O,0
 ,5.714,-0.809,27.287\O,0,5.25,0.955,28.294\C,0,2.499,-0.422,27.062\H,0
 ,3.94673789,0.55968361,16.78995082\\Version=ES64L-G16RevC.01\State=1-A
 \HF=-1105.3669988\RMSD=5.379e-09\Dipole=-0.3056283,-0.5366793,-0.02360
 2\Quadrupole=-28.8494505,-125.3165057,154.1659563,-0.6042977,43.046577
 8,-17.685933\PG=C01 [X(C13H1N3O6)]\\@
 The archive entry for this job was punched.


 EVERYTHING'S GOT A MORAL, IF ONLY YOU CAN FIND IT.

                                    -- LEWIS CARROL, ALICE IN WONDERLAND
 Job cpu time:       0 days  0 hours 58 minutes 11.6 seconds.
 Elapsed time:       0 days  0 hours  9 minutes 47.0 seconds.
 File lengths (MBytes):  RWF=     24 Int=      0 D2E=      0 Chk=      3 Scr=      1
 Normal termination of Gaussian 16 at Wed Jan 12 16:48:19 2022.
