Atom number=19                                                          
SP        RwB97XD                                                     6-31G               
Number of atoms                            I               19
Info1-9                                    I   N=           9
          81          28           0           0           0         110
           1          18       -5802
Full Title                                 C   N=           2
Atom number=19          
Route                                      C   N=           3
#p int=acc2e=12 wb97xd/6-31g        
Charge                                     I                1
Multiplicity                               I                1
Number of electrons                        I              104
Number of alpha electrons                  I               52
Number of beta electrons                   I               52
Number of basis functions                  I              143
Number of independent functions            I              143
Number of point charges in /Mol/           I                0
Number of translation vectors              I                0
Atomic numbers                             I   N=          19
           6           8           7           6           6           8
           7           6           6           8           7           6
           6           8           6           1           1           1
           1
Nuclear charges                            R   N=          19
  6.00000000E+00  8.00000000E+00  7.00000000E+00  6.00000000E+00  6.00000000E+00
  8.00000000E+00  7.00000000E+00  6.00000000E+00  6.00000000E+00  8.00000000E+00
  7.00000000E+00  6.00000000E+00  6.00000000E+00  8.00000000E+00  6.00000000E+00
  1.00000000E+00  1.00000000E+00  1.00000000E+00  1.00000000E+00
Current cartesian coordinates              R   N=          57
 -6.73636084E+00 -2.53859800E+00  3.24819956E-02 -6.99302074E+00 -2.65606998E+00
 -2.18101498E+00 -4.95833945E+00 -1.17761306E+00  1.21290420E+00 -3.00876586E+00
  2.76285889E-01 -5.19815544E-02 -5.44809155E-01 -2.49239866E-01  1.27033015E+00
 -2.26004622E-01  4.33026838E-01  3.45654814E+00  1.13522945E+00 -1.58686355E+00
  6.50206525E-03  3.55301438E+00 -2.26096574E+00  1.06881047E+00  5.65105407E+00
 -1.00367093E+00 -4.92452580E-01  5.64736602E+00 -1.27721683E+00 -2.80127136E+00
  7.34447872E+00  4.27040900E-01  7.74989252E-01  9.62337703E+00  1.43559454E+00
 -4.61123700E-01 -3.54499289E+00  3.08963050E+00  1.95065758E-01 -6.05814092E+00
  3.63159360E+00 -6.90577177E-01 -1.75466794E+00  4.50422443E+00 -1.31850989E+00
 -7.97570074E+00 -3.62933291E+00  1.19989199E+00  3.79926621E+00 -4.26776954E+00
  1.09352134E+00  1.12148811E+01  2.99876883E-01  5.44073428E-02  9.92328167E+00
  3.38904159E+00 -3.37902054E-02
Number of symbols in /Mol/                 I                0
Int Atom Types                             I   N=          19
           0           0           0           0           0           0
           0           0           0           0           0           0
           0           0           0           0           0           0
           0
Force Field                                I                0
Atom Types                                 C   N=          19
                                                            
                                                            
                                                            
                                                
MM charges                                 R   N=          19
  0.00000000E+00  0.00000000E+00  0.00000000E+00  0.00000000E+00  0.00000000E+00
  0.00000000E+00  0.00000000E+00  0.00000000E+00  0.00000000E+00  0.00000000E+00
  0.00000000E+00  0.00000000E+00  0.00000000E+00  0.00000000E+00  0.00000000E+00
  0.00000000E+00  0.00000000E+00  0.00000000E+00  0.00000000E+00
Integer atomic weights                     I   N=          19
          12          16          14          12          12          16
          14          12          12          16          14          12
          12          16          12           1           1           1
           1
Real atomic weights                        R   N=          19
  1.20000000E+01  1.59949146E+01  1.40030740E+01  1.20000000E+01  1.20000000E+01
  1.59949146E+01  1.40030740E+01  1.20000000E+01  1.20000000E+01  1.59949146E+01
  1.40030740E+01  1.20000000E+01  1.20000000E+01  1.59949146E+01  1.20000000E+01
  1.00782504E+00  1.00782504E+00  1.00782504E+00  1.00782504E+00
Atom fragment info                         I   N=          19
           0           0           0           0           0           0
           0           0           0           0           0           0
           0           0           0           0           0           0
           0
Atom residue num                           I   N=          19
           0           0           0           0           0           0
           0           0           0           0           0           0
           0           0           0           0           0           0
           0
Nuclear spins                              I   N=          19
           0           0           2           0           0           0
           2           0           0           0           2           0
           0           0           0           1           1           1
           1
Nuclear ZEff                               R   N=          19
 -3.60000000E+00 -5.60000000E+00 -4.55000000E+00 -3.60000000E+00 -3.60000000E+00
 -5.60000000E+00 -4.55000000E+00 -3.60000000E+00 -3.60000000E+00 -5.60000000E+00
 -4.55000000E+00 -3.60000000E+00 -3.60000000E+00 -5.60000000E+00 -3.60000000E+00
 -1.00000000E+00 -1.00000000E+00 -1.00000000E+00 -1.00000000E+00
Nuclear ZNuc                               R   N=          19
  6.00000000E+00  8.00000000E+00  7.00000000E+00  6.00000000E+00  6.00000000E+00
  8.00000000E+00  7.00000000E+00  6.00000000E+00  6.00000000E+00  8.00000000E+00
  7.00000000E+00  6.00000000E+00  6.00000000E+00  8.00000000E+00  6.00000000E+00
  1.00000000E+00  1.00000000E+00  1.00000000E+00  1.00000000E+00
Nuclear QMom                               R   N=          19
  0.00000000E+00  0.00000000E+00  2.04400000E+00  0.00000000E+00  0.00000000E+00
  0.00000000E+00  2.04400000E+00  0.00000000E+00  0.00000000E+00  0.00000000E+00
  2.04400000E+00  0.00000000E+00  0.00000000E+00  0.00000000E+00  0.00000000E+00
  0.00000000E+00  0.00000000E+00  0.00000000E+00  0.00000000E+00
Nuclear GFac                               R   N=          19
  0.00000000E+00  0.00000000E+00  4.03761000E-01  0.00000000E+00  0.00000000E+00
  0.00000000E+00  4.03761000E-01  0.00000000E+00  0.00000000E+00  0.00000000E+00
  4.03761000E-01  0.00000000E+00  0.00000000E+00  0.00000000E+00  0.00000000E+00
  2.79284600E+00  2.79284600E+00  2.79284600E+00  2.79284600E+00
MicOpt                                     I   N=          19
          -1          -1          -1          -1          -1          -1
          -1          -1          -1          -1          -1          -1
          -1          -1          -1          -1          -1          -1
          -1
Number of residues                         I                0
Number of secondary structures             I                0
SymInf integers                            I   N=          26
           1           1           1           1           1           0
           0           0           0           0           0           0
           0           0           0           0           0           0
           0           0           0           0           0           0
           0           0
RotTr to input orientation                 R   N=          12
  2.67284676E-01 -3.54097969E-02  9.62966795E-01 -9.26730350E-01 -2.83294718E-01
  2.46809562E-01  2.64063930E-01 -9.58378969E-01 -1.08535670E-01  5.90977513E+00
  8.97011197E-01  4.04347288E+01
Number of contracted shells                I               53
Number of primitive shells                 I              166
Pure/Cartesian d shells                    I                1
Pure/Cartesian f shells                    I                0
Highest angular momentum                   I                1
Largest degree of contraction              I                6
Shell types                                I   N=          53
           0          -1          -1           0          -1          -1
           0          -1          -1           0          -1          -1
           0          -1          -1           0          -1          -1
           0          -1          -1           0          -1          -1
           0          -1          -1           0          -1          -1
           0          -1          -1           0          -1          -1
           0          -1          -1           0          -1          -1
           0          -1          -1           0           0           0
           0           0           0           0           0
Number of primitives per shell             I   N=          53
           6           3           1           6           3           1
           6           3           1           6           3           1
           6           3           1           6           3           1
           6           3           1           6           3           1
           6           3           1           6           3           1
           6           3           1           6           3           1
           6           3           1           6           3           1
           6           3           1           3           1           3
           1           3           1           3           1
Shell to atom map                          I   N=          53
           1           1           1           2           2           2
           3           3           3           4           4           4
           5           5           5           6           6           6
           7           7           7           8           8           8
           9           9           9          10          10          10
          11          11          11          12          12          12
          13          13          13          14          14          14
          15          15          15          16          16          17
          17          18          18          19          19
Primitive exponents                        R   N=         166
  3.04752488E+03  4.57369518E+02  1.03948685E+02  2.92101553E+01  9.28666296E+00
  3.16392696E+00  7.86827235E+00  1.88128854E+00  5.44249258E-01  1.68714478E-01
  5.48467166E+03  8.25234946E+02  1.88046958E+02  5.29645000E+01  1.68975704E+01
  5.79963534E+00  1.55396162E+01  3.59993359E+00  1.01376175E+00  2.70005823E-01
  4.17351146E+03  6.27457911E+02  1.42902093E+02  4.02343293E+01  1.28202129E+01
  4.39043701E+00  1.16263619E+01  2.71627981E+00  7.72218397E-01  2.12031498E-01
  3.04752488E+03  4.57369518E+02  1.03948685E+02  2.92101553E+01  9.28666296E+00
  3.16392696E+00  7.86827235E+00  1.88128854E+00  5.44249258E-01  1.68714478E-01
  3.04752488E+03  4.57369518E+02  1.03948685E+02  2.92101553E+01  9.28666296E+00
  3.16392696E+00  7.86827235E+00  1.88128854E+00  5.44249258E-01  1.68714478E-01
  5.48467166E+03  8.25234946E+02  1.88046958E+02  5.29645000E+01  1.68975704E+01
  5.79963534E+00  1.55396162E+01  3.59993359E+00  1.01376175E+00  2.70005823E-01
  4.17351146E+03  6.27457911E+02  1.42902093E+02  4.02343293E+01  1.28202129E+01
  4.39043701E+00  1.16263619E+01  2.71627981E+00  7.72218397E-01  2.12031498E-01
  3.04752488E+03  4.57369518E+02  1.03948685E+02  2.92101553E+01  9.28666296E+00
  3.16392696E+00  7.86827235E+00  1.88128854E+00  5.44249258E-01  1.68714478E-01
  3.04752488E+03  4.57369518E+02  1.03948685E+02  2.92101553E+01  9.28666296E+00
  3.16392696E+00  7.86827235E+00  1.88128854E+00  5.44249258E-01  1.68714478E-01
  5.48467166E+03  8.25234946E+02  1.88046958E+02  5.29645000E+01  1.68975704E+01
  5.79963534E+00  1.55396162E+01  3.59993359E+00  1.01376175E+00  2.70005823E-01
  4.17351146E+03  6.27457911E+02  1.42902093E+02  4.02343293E+01  1.28202129E+01
  4.39043701E+00  1.16263619E+01  2.71627981E+00  7.72218397E-01  2.12031498E-01
  3.04752488E+03  4.57369518E+02  1.03948685E+02  2.92101553E+01  9.28666296E+00
  3.16392696E+00  7.86827235E+00  1.88128854E+00  5.44249258E-01  1.68714478E-01
  3.04752488E+03  4.57369518E+02  1.03948685E+02  2.92101553E+01  9.28666296E+00
  3.16392696E+00  7.86827235E+00  1.88128854E+00  5.44249258E-01  1.68714478E-01
  5.48467166E+03  8.25234946E+02  1.88046958E+02  5.29645000E+01  1.68975704E+01
  5.79963534E+00  1.55396162E+01  3.59993359E+00  1.01376175E+00  2.70005823E-01
  3.04752488E+03  4.57369518E+02  1.03948685E+02  2.92101553E+01  9.28666296E+00
  3.16392696E+00  7.86827235E+00  1.88128854E+00  5.44249258E-01  1.68714478E-01
  1.87311370E+01  2.82539436E+00  6.40121692E-01  1.61277759E-01  1.87311370E+01
  2.82539436E+00  6.40121692E-01  1.61277759E-01  1.87311370E+01  2.82539436E+00
  6.40121692E-01  1.61277759E-01  1.87311370E+01  2.82539436E+00  6.40121692E-01
  1.61277759E-01
Contraction coefficients                   R   N=         166
  1.83473713E-03  1.40373228E-02  6.88426223E-02  2.32184443E-01  4.67941348E-01
  3.62311985E-01 -1.19332420E-01 -1.60854152E-01  1.14345644E+00  1.00000000E+00
  1.83107443E-03  1.39501722E-02  6.84450781E-02  2.32714336E-01  4.70192898E-01
  3.58520853E-01 -1.10777550E-01 -1.48026263E-01  1.13076702E+00  1.00000000E+00
  1.83477216E-03  1.39946270E-02  6.85865518E-02  2.32240873E-01  4.69069948E-01
  3.60455199E-01 -1.14961182E-01 -1.69117479E-01  1.14585195E+00  1.00000000E+00
  1.83473713E-03  1.40373228E-02  6.88426223E-02  2.32184443E-01  4.67941348E-01
  3.62311985E-01 -1.19332420E-01 -1.60854152E-01  1.14345644E+00  1.00000000E+00
  1.83473713E-03  1.40373228E-02  6.88426223E-02  2.32184443E-01  4.67941348E-01
  3.62311985E-01 -1.19332420E-01 -1.60854152E-01  1.14345644E+00  1.00000000E+00
  1.83107443E-03  1.39501722E-02  6.84450781E-02  2.32714336E-01  4.70192898E-01
  3.58520853E-01 -1.10777550E-01 -1.48026263E-01  1.13076702E+00  1.00000000E+00
  1.83477216E-03  1.39946270E-02  6.85865518E-02  2.32240873E-01  4.69069948E-01
  3.60455199E-01 -1.14961182E-01 -1.69117479E-01  1.14585195E+00  1.00000000E+00
  1.83473713E-03  1.40373228E-02  6.88426223E-02  2.32184443E-01  4.67941348E-01
  3.62311985E-01 -1.19332420E-01 -1.60854152E-01  1.14345644E+00  1.00000000E+00
  1.83473713E-03  1.40373228E-02  6.88426223E-02  2.32184443E-01  4.67941348E-01
  3.62311985E-01 -1.19332420E-01 -1.60854152E-01  1.14345644E+00  1.00000000E+00
  1.83107443E-03  1.39501722E-02  6.84450781E-02  2.32714336E-01  4.70192898E-01
  3.58520853E-01 -1.10777550E-01 -1.48026263E-01  1.13076702E+00  1.00000000E+00
  1.83477216E-03  1.39946270E-02  6.85865518E-02  2.32240873E-01  4.69069948E-01
  3.60455199E-01 -1.14961182E-01 -1.69117479E-01  1.14585195E+00  1.00000000E+00
  1.83473713E-03  1.40373228E-02  6.88426223E-02  2.32184443E-01  4.67941348E-01
  3.62311985E-01 -1.19332420E-01 -1.60854152E-01  1.14345644E+00  1.00000000E+00
  1.83473713E-03  1.40373228E-02  6.88426223E-02  2.32184443E-01  4.67941348E-01
  3.62311985E-01 -1.19332420E-01 -1.60854152E-01  1.14345644E+00  1.00000000E+00
  1.83107443E-03  1.39501722E-02  6.84450781E-02  2.32714336E-01  4.70192898E-01
  3.58520853E-01 -1.10777550E-01 -1.48026263E-01  1.13076702E+00  1.00000000E+00
  1.83473713E-03  1.40373228E-02  6.88426223E-02  2.32184443E-01  4.67941348E-01
  3.62311985E-01 -1.19332420E-01 -1.60854152E-01  1.14345644E+00  1.00000000E+00
  3.34946043E-02  2.34726953E-01  8.13757326E-01  1.00000000E+00  3.34946043E-02
  2.34726953E-01  8.13757326E-01  1.00000000E+00  3.34946043E-02  2.34726953E-01
  8.13757326E-01  1.00000000E+00  3.34946043E-02  2.34726953E-01  8.13757326E-01
  1.00000000E+00
P(S=P) Contraction coefficients            R   N=         166
  0.00000000E+00  0.00000000E+00  0.00000000E+00  0.00000000E+00  0.00000000E+00
  0.00000000E+00  6.89990666E-02  3.16423961E-01  7.44308291E-01  1.00000000E+00
  0.00000000E+00  0.00000000E+00  0.00000000E+00  0.00000000E+00  0.00000000E+00
  0.00000000E+00  7.08742682E-02  3.39752839E-01  7.27158577E-01  1.00000000E+00
  0.00000000E+00  0.00000000E+00  0.00000000E+00  0.00000000E+00  0.00000000E+00
  0.00000000E+00  6.75797439E-02  3.23907296E-01  7.40895140E-01  1.00000000E+00
  0.00000000E+00  0.00000000E+00  0.00000000E+00  0.00000000E+00  0.00000000E+00
  0.00000000E+00  6.89990666E-02  3.16423961E-01  7.44308291E-01  1.00000000E+00
  0.00000000E+00  0.00000000E+00  0.00000000E+00  0.00000000E+00  0.00000000E+00
  0.00000000E+00  6.89990666E-02  3.16423961E-01  7.44308291E-01  1.00000000E+00
  0.00000000E+00  0.00000000E+00  0.00000000E+00  0.00000000E+00  0.00000000E+00
  0.00000000E+00  7.08742682E-02  3.39752839E-01  7.27158577E-01  1.00000000E+00
  0.00000000E+00  0.00000000E+00  0.00000000E+00  0.00000000E+00  0.00000000E+00
  0.00000000E+00  6.75797439E-02  3.23907296E-01  7.40895140E-01  1.00000000E+00
  0.00000000E+00  0.00000000E+00  0.00000000E+00  0.00000000E+00  0.00000000E+00
  0.00000000E+00  6.89990666E-02  3.16423961E-01  7.44308291E-01  1.00000000E+00
  0.00000000E+00  0.00000000E+00  0.00000000E+00  0.00000000E+00  0.00000000E+00
  0.00000000E+00  6.89990666E-02  3.16423961E-01  7.44308291E-01  1.00000000E+00
  0.00000000E+00  0.00000000E+00  0.00000000E+00  0.00000000E+00  0.00000000E+00
  0.00000000E+00  7.08742682E-02  3.39752839E-01  7.27158577E-01  1.00000000E+00
  0.00000000E+00  0.00000000E+00  0.00000000E+00  0.00000000E+00  0.00000000E+00
  0.00000000E+00  6.75797439E-02  3.23907296E-01  7.40895140E-01  1.00000000E+00
  0.00000000E+00  0.00000000E+00  0.00000000E+00  0.00000000E+00  0.00000000E+00
  0.00000000E+00  6.89990666E-02  3.16423961E-01  7.44308291E-01  1.00000000E+00
  0.00000000E+00  0.00000000E+00  0.00000000E+00  0.00000000E+00  0.00000000E+00
  0.00000000E+00  6.89990666E-02  3.16423961E-01  7.44308291E-01  1.00000000E+00
  0.00000000E+00  0.00000000E+00  0.00000000E+00  0.00000000E+00  0.00000000E+00
  0.00000000E+00  7.08742682E-02  3.39752839E-01  7.27158577E-01  1.00000000E+00
  0.00000000E+00  0.00000000E+00  0.00000000E+00  0.00000000E+00  0.00000000E+00
  0.00000000E+00  6.89990666E-02  3.16423961E-01  7.44308291E-01  1.00000000E+00
  0.00000000E+00  0.00000000E+00  0.00000000E+00  0.00000000E+00  0.00000000E+00
  0.00000000E+00  0.00000000E+00  0.00000000E+00  0.00000000E+00  0.00000000E+00
  0.00000000E+00  0.00000000E+00  0.00000000E+00  0.00000000E+00  0.00000000E+00
  0.00000000E+00
Coordinates of each shell                  R   N=         159
 -6.73636084E+00 -2.53859800E+00  3.24819956E-02 -6.73636084E+00 -2.53859800E+00
  3.24819956E-02 -6.73636084E+00 -2.53859800E+00  3.24819956E-02 -6.99302074E+00
 -2.65606998E+00 -2.18101498E+00 -6.99302074E+00 -2.65606998E+00 -2.18101498E+00
 -6.99302074E+00 -2.65606998E+00 -2.18101498E+00 -4.95833945E+00 -1.17761306E+00
  1.21290420E+00 -4.95833945E+00 -1.17761306E+00  1.21290420E+00 -4.95833945E+00
 -1.17761306E+00  1.21290420E+00 -3.00876586E+00  2.76285889E-01 -5.19815544E-02
 -3.00876586E+00  2.76285889E-01 -5.19815544E-02 -3.00876586E+00  2.76285889E-01
 -5.19815544E-02 -5.44809155E-01 -2.49239866E-01  1.27033015E+00 -5.44809155E-01
 -2.49239866E-01  1.27033015E+00 -5.44809155E-01 -2.49239866E-01  1.27033015E+00
 -2.26004622E-01  4.33026838E-01  3.45654814E+00 -2.26004622E-01  4.33026838E-01
  3.45654814E+00 -2.26004622E-01  4.33026838E-01  3.45654814E+00  1.13522945E+00
 -1.58686355E+00  6.50206525E-03  1.13522945E+00 -1.58686355E+00  6.50206525E-03
  1.13522945E+00 -1.58686355E+00  6.50206525E-03  3.55301438E+00 -2.26096574E+00
  1.06881047E+00  3.55301438E+00 -2.26096574E+00  1.06881047E+00  3.55301438E+00
 -2.26096574E+00  1.06881047E+00  5.65105407E+00 -1.00367093E+00 -4.92452580E-01
  5.65105407E+00 -1.00367093E+00 -4.92452580E-01  5.65105407E+00 -1.00367093E+00
 -4.92452580E-01  5.64736602E+00 -1.27721683E+00 -2.80127136E+00  5.64736602E+00
 -1.27721683E+00 -2.80127136E+00  5.64736602E+00 -1.27721683E+00 -2.80127136E+00
  7.34447872E+00  4.27040900E-01  7.74989252E-01  7.34447872E+00  4.27040900E-01
  7.74989252E-01  7.34447872E+00  4.27040900E-01  7.74989252E-01  9.62337703E+00
  1.43559454E+00 -4.61123700E-01  9.62337703E+00  1.43559454E+00 -4.61123700E-01
  9.62337703E+00  1.43559454E+00 -4.61123700E-01 -3.54499289E+00  3.08963050E+00
  1.95065758E-01 -3.54499289E+00  3.08963050E+00  1.95065758E-01 -3.54499289E+00
  3.08963050E+00  1.95065758E-01 -6.05814092E+00  3.63159360E+00 -6.90577177E-01
 -6.05814092E+00  3.63159360E+00 -6.90577177E-01 -6.05814092E+00  3.63159360E+00
 -6.90577177E-01 -1.75466794E+00  4.50422443E+00 -1.31850989E+00 -1.75466794E+00
  4.50422443E+00 -1.31850989E+00 -1.75466794E+00  4.50422443E+00 -1.31850989E+00
 -7.97570074E+00 -3.62933291E+00  1.19989199E+00 -7.97570074E+00 -3.62933291E+00
  1.19989199E+00  3.79926621E+00 -4.26776954E+00  1.09352134E+00  3.79926621E+00
 -4.26776954E+00  1.09352134E+00  1.12148811E+01  2.99876883E-01  5.44073428E-02
  1.12148811E+01  2.99876883E-01  5.44073428E-02  9.92328167E+00  3.38904159E+00
 -3.37902054E-02  9.92328167E+00  3.38904159E+00 -3.37902054E-02
Num ILSW                                   I              100
ILSW                                       I   N=         100
           0           1           0           0           2           0
           0           0           0           0        4639          -1
           5           0           0           0           0           0
           0           0           0           0           0           0
           1           0           0           0           0           0
           0           0      100000           0          -1           0
           0           0           0           0           0           0
           0           0           0           1           0           0
           0 -2000000000           1           0           0           0
           0           0         121          52           0           0
           0           0          58           0           0           0
           0           0           0          19           0           1
           0           0           0           0           0           0
           0           0           0           0           0           0
           0           0           0           0           0           0
           0           0           0           0           0           0
           0           0           0           0
Num RLSW                                   I               52
RLSW                                       R   N=          52
  1.00000000E+00  1.00000000E+00  1.00000000E+00  1.00000000E+00  1.00000000E+00
  0.00000000E+00  2.00000000E-01  2.22036000E-01  0.00000000E+00  7.77964000E-01
  0.00000000E+00  2.00000000E-01  0.00000000E+00  0.00000000E+00  1.00000000E+00
  0.00000000E+00  0.00000000E+00  1.00000000E+00  0.00000000E+00  0.00000000E+00
  0.00000000E+00  0.00000000E+00  1.00000000E+00  0.00000000E+00  0.00000000E+00
  0.00000000E+00  0.00000000E+00  1.00000000E+00  0.00000000E+00  0.00000000E+00
  0.00000000E+00  0.00000000E+00  1.00000000E+00  0.00000000E+00  0.00000000E+00
  0.00000000E+00  0.00000000E+00  0.00000000E+00  1.00000000E+00  1.00000000E+00
  0.00000000E+00  1.00000000E+00  0.00000000E+00  0.00000000E+00  0.00000000E+00
  0.00000000E+00  0.00000000E+00  0.00000000E+00  0.00000000E+00  0.00000000E+00
  0.00000000E+00  0.00000000E+00
MxBond                                     I                3
NBond                                      I   N=          19
           3           1           2           3           3           1
           2           3           3           1           2           3
           3           1           1           1           1           1
           1
IBond                                      I   N=          57
           2           3          16           1           0           0
           1           4           0           3           5          13
           4           6           7           5           0           0
           5           8           0           7           9          17
           8          10          11           9           0           0
           9          12           0          11          18          19
           4          14          15          13           0           0
          13           0           0           1           0           0
           8           0           0          12           0           0
          12           0           0
RBond                                      R   N=          57
  2.00000000E+00  1.50000000E+00  1.00000000E+00  2.00000000E+00  0.00000000E+00
  0.00000000E+00  1.50000000E+00  1.00000000E+00  0.00000000E+00  1.00000000E+00
  1.00000000E+00  1.00000000E+00  1.00000000E+00  2.00000000E+00  1.50000000E+00
  2.00000000E+00  0.00000000E+00  0.00000000E+00  1.50000000E+00  1.00000000E+00
  0.00000000E+00  1.00000000E+00  1.00000000E+00  1.00000000E+00  1.00000000E+00
  2.00000000E+00  1.50000000E+00  2.00000000E+00  0.00000000E+00  0.00000000E+00
  1.50000000E+00  1.00000000E+00  0.00000000E+00  1.00000000E+00  1.00000000E+00
  1.00000000E+00  1.00000000E+00  1.00000000E+00  1.00000000E+00  1.00000000E+00
  0.00000000E+00  0.00000000E+00  1.00000000E+00  0.00000000E+00  0.00000000E+00
  1.00000000E+00  0.00000000E+00  0.00000000E+00  1.00000000E+00  0.00000000E+00
  0.00000000E+00  1.00000000E+00  0.00000000E+00  0.00000000E+00  1.00000000E+00
  0.00000000E+00  0.00000000E+00
Virial Ratio                               R      2.005669032115257E+00
SCF Energy                                 R     -7.708605917306710E+02
Total Energy                               R     -7.708605917306710E+02
RMS Density                                R      8.369412354913223E-09
Job Status                                 I                1
Nuclear derivative order                   I                0
External E-field                           R   N=          35
  0.00000000E+00  0.00000000E+00  0.00000000E+00  0.00000000E+00  0.00000000E+00
  0.00000000E+00  0.00000000E+00  0.00000000E+00  0.00000000E+00  0.00000000E+00
  0.00000000E+00  0.00000000E+00  0.00000000E+00  0.00000000E+00  0.00000000E+00
  0.00000000E+00  0.00000000E+00  0.00000000E+00  0.00000000E+00  0.00000000E+00
  0.00000000E+00  0.00000000E+00  0.00000000E+00  0.00000000E+00  0.00000000E+00
  0.00000000E+00  0.00000000E+00  0.00000000E+00  0.00000000E+00  0.00000000E+00
  0.00000000E+00  0.00000000E+00  0.00000000E+00  0.00000000E+00  0.00000000E+00
IOpCl                                      I                0
IROHF                                      I                0
Alpha Orbital Energies                     R   N=         143
 -1.95517462E+01 -1.94613373E+01 -1.94439372E+01 -1.94227921E+01 -1.47051881E+01
 -1.46764900E+01 -1.46567338E+01 -1.07190477E+01 -1.06455059E+01 -1.06333993E+01
 -1.06102788E+01 -1.06039088E+01 -1.05949998E+01 -1.05891876E+01 -1.05719615E+01
 -1.39014003E+00 -1.36923829E+00 -1.33612678E+00 -1.33254028E+00 -1.22337852E+00
 -1.20922765E+00 -1.17177685E+00 -1.12677122E+00 -1.04910843E+00 -1.01636804E+00
 -9.69598139E-01 -8.81800045E-01 -8.66582315E-01 -8.14826539E-01 -7.90755025E-01
 -7.81520129E-01 -7.47355551E-01 -7.35614532E-01 -7.26985403E-01 -7.25975116E-01
 -7.15666443E-01 -7.02963015E-01 -6.93403284E-01 -6.87758947E-01 -6.72822657E-01
 -6.57990242E-01 -6.45502531E-01 -6.22907347E-01 -6.12695451E-01 -5.91293539E-01
 -5.85478709E-01 -5.48020897E-01 -5.26797845E-01 -5.17540217E-01 -5.07378987E-01
 -4.94679069E-01 -4.87592586E-01 -3.55215409E-01 -3.01146209E-01 -2.77825338E-01
 -2.46842906E-01 -2.24941090E-01 -1.99028051E-01 -9.95334410E-02 -7.15886424E-02
 -5.94884647E-02  4.71171470E-02  5.69850681E-02  6.57420551E-02  8.29767643E-02
  9.68823055E-02  1.04103403E-01  1.12891513E-01  1.23134070E-01  1.28678210E-01
  1.43547866E-01  1.49310968E-01  1.68587534E-01  2.05126707E-01  2.20855809E-01
  2.35912943E-01  2.77763572E-01  3.13207440E-01  3.24637065E-01  3.88761610E-01
  4.01482085E-01  4.16407574E-01  4.30111974E-01  4.42382462E-01  4.47666611E-01
  4.52947396E-01  4.57546340E-01  4.64196496E-01  4.71875056E-01  4.81540251E-01
  4.84031873E-01  4.94675803E-01  5.24081631E-01  5.33862176E-01  5.66391445E-01
  5.73681488E-01  5.82161876E-01  5.93711228E-01  6.01133859E-01  6.33172251E-01
  6.41119351E-01  6.51566676E-01  6.65850392E-01  6.80773157E-01  6.84420477E-01
  7.23694301E-01  7.34034395E-01  7.63895875E-01  7.72452005E-01  7.92702273E-01
  8.09753846E-01  8.28939449E-01  8.39299714E-01  8.42617658E-01  8.56054328E-01
  8.66533032E-01  8.74633082E-01  8.83250438E-01  8.92900088E-01  9.03440626E-01
  9.25799528E-01  9.44381199E-01  9.53335286E-01  9.69176115E-01  9.85934915E-01
  1.00385246E+00  1.02701939E+00  1.06683742E+00  1.08387589E+00  1.09674809E+00
  1.10734318E+00  1.13792149E+00  1.17268303E+00  1.23815094E+00  1.25617252E+00
  1.36313522E+00  1.45950613E+00  1.48310979E+00  1.58210987E+00  1.62224460E+00
  1.73067277E+00  1.81167362E+00  1.89201106E+00
Alpha MO coefficients                      R   N=       20449
 -3.23203049E-07 -7.13309809E-05 -7.77391771E-05 -1.37370604E-04 -2.96369123E-05
 -2.43463358E-04  1.59102110E-04  2.42154500E-04 -5.18829266E-04  8.18346073E-05
  1.33594063E-04  2.19120063E-05  2.08443087E-05  1.30053417E-05 -5.00338097E-04
 -1.23256589E-04 -1.27086953E-04 -1.50501031E-04  1.25726146E-05  1.35587593E-04
  1.87646820E-04  1.92663023E-05  9.01934605E-05 -1.92567055E-04 -6.66196354E-04
 -3.40504641E-04 -1.98687755E-04  5.86942152E-05  2.21541694E-04  1.51910848E-04
 -2.35150028E-04  1.04172401E-05 -3.93484711E-03 -2.06770735E-04 -1.31031190E-03