 Entering Gaussian System, Link 0=g16
 Input=4znn_01_gebf_dft_3.gjf
 Output=4znn_01_gebf_dft_3.log
 Initial command:
 /work/01114/jfonner/frontera/gaussian/16rC.01/g16/l1.exe "/scratch1/08249/sa748948/lsqc/62950343/Gau-176208.inp" -scrdir="/scratch1/08249/sa748948/lsqc/62950343/"
 Entering Link 1 = /work/01114/jfonner/frontera/gaussian/16rC.01/g16/l1.exe PID=    176218.
  
 Copyright (c) 1988-2019, Gaussian, Inc.  All Rights Reserved.
  
 This is part of the Gaussian(R) 16 program.  It is based on
 the Gaussian(R) 09 system (copyright 2009, Gaussian, Inc.),
 the Gaussian(R) 03 system (copyright 2003, Gaussian, Inc.),
 the Gaussian(R) 98 system (copyright 1998, Gaussian, Inc.),
 the Gaussian(R) 94 system (copyright 1995, Gaussian, Inc.),
 the Gaussian 92(TM) system (copyright 1992, Gaussian, Inc.),
 the Gaussian 90(TM) system (copyright 1990, Gaussian, Inc.),
 the Gaussian 88(TM) system (copyright 1988, Gaussian, Inc.),
 the Gaussian 86(TM) system (copyright 1986, Carnegie Mellon
 University), and the Gaussian 82(TM) system (copyright 1983,
 Carnegie Mellon University). Gaussian is a federally registered
 trademark of Gaussian, Inc.
  
 This software contains proprietary and confidential information,
 including trade secrets, belonging to Gaussian, Inc.
  
 This software is provided under written license and may be
 used, copied, transmitted, or stored only in accord with that
 written license.
  
 The following legend is applicable only to US Government
 contracts under FAR:
  
                    RESTRICTED RIGHTS LEGEND
  
 Use, reproduction and disclosure by the US Government is
 subject to restrictions as set forth in subparagraphs (a)
 and (c) of the Commercial Computer Software - Restricted
 Rights clause in FAR 52.227-19.
  
 Gaussian, Inc.
 340 Quinnipiac St., Bldg. 40, Wallingford CT 06492
  
  
 ---------------------------------------------------------------
 Warning -- This program may not be used in any manner that
 competes with the business of Gaussian, Inc. or will provide
 assistance to any competitor of Gaussian, Inc.  The licensee
 of this program is prohibited from giving any competitor of
 Gaussian, Inc. access to this program.  By using this program,
 the user acknowledges that Gaussian, Inc. is engaged in the
 business of creating and licensing software in the field of
 computational chemistry and represents and warrants to the
 licensee that it is not a competitor of Gaussian, Inc. and that
 it will not use this program in any manner prohibited above.
 ---------------------------------------------------------------
  

 Cite this work as:
 Gaussian 16, Revision C.01,
 M. J. Frisch, G. W. Trucks, H. B. Schlegel, G. E. Scuseria, 
 M. A. Robb, J. R. Cheeseman, G. Scalmani, V. Barone, 
 G. A. Petersson, H. Nakatsuji, X. Li, M. Caricato, A. V. Marenich, 
 J. Bloino, B. G. Janesko, R. Gomperts, B. Mennucci, H. P. Hratchian, 
 J. V. Ortiz, A. F. Izmaylov, J. L. Sonnenberg, D. Williams-Young, 
 F. Ding, F. Lipparini, F. Egidi, J. Goings, B. Peng, A. Petrone, 
 T. Henderson, D. Ranasinghe, V. G. Zakrzewski, J. Gao, N. Rega, 
 G. Zheng, W. Liang, M. Hada, M. Ehara, K. Toyota, R. Fukuda, 
 J. Hasegawa, M. Ishida, T. Nakajima, Y. Honda, O. Kitao, H. Nakai, 
 T. Vreven, K. Throssell, J. A. Montgomery, Jr., J. E. Peralta, 
 F. Ogliaro, M. J. Bearpark, J. J. Heyd, E. N. Brothers, K. N. Kudin, 
 V. N. Staroverov, T. A. Keith, R. Kobayashi, J. Normand, 
 K. Raghavachari, A. P. Rendell, J. C. Burant, S. S. Iyengar, 
 J. Tomasi, M. Cossi, J. M. Millam, M. Klene, C. Adamo, R. Cammi, 
 J. W. Ochterski, R. L. Martin, K. Morokuma, O. Farkas, 
 J. B. Foresman, and D. J. Fox, Gaussian, Inc., Wallingford CT, 2019.
 
 ******************************************
 Gaussian 16:  ES64L-G16RevC.01  3-Jul-2019
                 5-Jan-2022 
 ******************************************
 %chk=4znn_01_gebf_dft_3.chk
 %nproc=56
 Will use up to   56 processors via shared memory.
 %mem=3gb
 ----------------------------
 #p int=acc2e=12 wb97xd/6-31g
 ----------------------------
 1/38=1,172=1/1;
 2/12=2,17=6,18=5,40=1/2;
 3/5=1,6=6,11=2,25=1,27=12,30=1,74=-58/1,2,3;
 4//1;
 5/5=2,38=5,87=12/2;
 6/7=2,8=2,9=2,10=2,28=1,87=12/1;
 99/5=1,9=1/99;
 Leave Link    1 at Wed Jan  5 16:30:22 2022, MaxMem=   402653184 cpu:               3.1 elap:               0.5
 (Enter /work/01114/jfonner/frontera/gaussian/16rC.01/g16/l101.exe)
 --------------
 Atom number=23
 --------------
 Symbolic Z-matrix:
 Charge =  4 Multiplicity = 1
 c                    -1.636     0.175     4.6 
 o                    -1.744     1.356     4.862 
 n                    -1.095    -0.7       5.415 
 c                    -0.572    -0.311     6.669 
 c                     0.84     -0.854     6.792 
 o                     1.027    -2.022     6.72 
 n                     1.81      0.002     7.023 
 c                     3.191    -0.429     7.101 
 c                    -1.411    -0.913     7.797 
 c                    -0.727    -0.645     9.123 
 c                     3.911     0.258     8.229 
 o                     4.064     1.478     8.228 
 n                     4.364    -0.527     9.189 
 c                     5.067     0.02      10.326 
 c                     3.871    -0.103     5.748 
 c                     5.247    -0.643     5.581 
 n                     5.861    -0.689     4.353 
 c                     6.108    -1.197     6.448 
 c                     7.059    -1.227     4.482 
 n                     7.239    -1.523     5.751 
 h                    -1.93928  -0.22723   3.656 
 h                    -2.40238  -0.51045   7.79129 
 h                     4.49404   0.59368   11.02421 
 
 ITRead=  0  0  0  0  0  0  0  0  0  0  0  0  0  0  0  0  0  0  0  0
 ITRead=  0  0  0
 MicOpt= -1 -1 -1 -1 -1 -1 -1 -1 -1 -1 -1 -1 -1 -1 -1 -1 -1 -1 -1 -1
 MicOpt= -1 -1 -1
 NAtoms=     23 NQM=       23 NQMF=       0 NMMI=      0 NMMIF=      0
                NMic=       0 NMicF=      0.
                    Isotopes and Nuclear Properties:
 (Nuclear quadrupole moments (NQMom) in fm**2, nuclear magnetic moments (NMagM)
  in nuclear magnetons)

  Atom         1           2           3           4           5           6           7           8           9          10
 IAtWgt=          12          16          14          12          12          16          14          12          12          12
 AtmWgt=  12.0000000  15.9949146  14.0030740  12.0000000  12.0000000  15.9949146  14.0030740  12.0000000  12.0000000  12.0000000
 NucSpn=           0           0           2           0           0           0           2           0           0           0
 AtZEff=  -0.0000000  -0.0000000  -0.0000000  -0.0000000  -0.0000000  -0.0000000  -0.0000000  -0.0000000  -0.0000000  -0.0000000
 NQMom=    0.0000000   0.0000000   2.0440000   0.0000000   0.0000000   0.0000000   2.0440000   0.0000000   0.0000000   0.0000000
 NMagM=    0.0000000   0.0000000   0.4037610   0.0000000   0.0000000   0.0000000   0.4037610   0.0000000   0.0000000   0.0000000
 AtZNuc=   6.0000000   8.0000000   7.0000000   6.0000000   6.0000000   8.0000000   7.0000000   6.0000000   6.0000000   6.0000000

  Atom        11          12          13          14          15          16          17          18          19          20
 IAtWgt=          12          16          14          12          12          12          14          12          12          14
 AtmWgt=  12.0000000  15.9949146  14.0030740  12.0000000  12.0000000  12.0000000  14.0030740  12.0000000  12.0000000  14.0030740
 NucSpn=           0           0           2           0           0           0           2           0           0           2
 AtZEff=  -0.0000000  -0.0000000  -0.0000000  -0.0000000  -0.0000000  -0.0000000  -0.0000000  -0.0000000  -0.0000000  -0.0000000
 NQMom=    0.0000000   0.0000000   2.0440000   0.0000000   0.0000000   0.0000000   2.0440000   0.0000000   0.0000000   2.0440000
 NMagM=    0.0000000   0.0000000   0.4037610   0.0000000   0.0000000   0.0000000   0.4037610   0.0000000   0.0000000   0.4037610
 AtZNuc=   6.0000000   8.0000000   7.0000000   6.0000000   6.0000000   6.0000000   7.0000000   6.0000000   6.0000000   7.0000000

  Atom        21          22          23
 IAtWgt=           1           1           1
 AtmWgt=   1.0078250   1.0078250   1.0078250
 NucSpn=           1           1           1
 AtZEff=  -0.0000000  -0.0000000  -0.0000000
 NQMom=    0.0000000   0.0000000   0.0000000
 NMagM=    2.7928460   2.7928460   2.7928460
 AtZNuc=   1.0000000   1.0000000   1.0000000
 Leave Link  101 at Wed Jan  5 16:30:23 2022, MaxMem=   402653184 cpu:               6.8 elap:               1.1
 (Enter /work/01114/jfonner/frontera/gaussian/16rC.01/g16/l202.exe)
                          Input orientation:                          
 ---------------------------------------------------------------------
 Center     Atomic      Atomic             Coordinates (Angstroms)
 Number     Number       Type             X           Y           Z
 ---------------------------------------------------------------------
      1          6           0       -1.636000    0.175000    4.600000
      2          8           0       -1.744000    1.356000    4.862000
      3          7           0       -1.095000   -0.700000    5.415000
      4          6           0       -0.572000   -0.311000    6.669000
      5          6           0        0.840000   -0.854000    6.792000
      6          8           0        1.027000   -2.022000    6.720000
      7          7           0        1.810000    0.002000    7.023000
      8          6           0        3.191000   -0.429000    7.101000
      9          6           0       -1.411000   -0.913000    7.797000
     10          6           0       -0.727000   -0.645000    9.123000
     11          6           0        3.911000    0.258000    8.229000
     12          8           0        4.064000    1.478000    8.228000
     13          7           0        4.364000   -0.527000    9.189000
     14          6           0        5.067000    0.020000   10.326000
     15          6           0        3.871000   -0.103000    5.748000
     16          6           0        5.247000   -0.643000    5.581000
     17          7           0        5.861000   -0.689000    4.353000
     18          6           0        6.108000   -1.197000    6.448000
     19          6           0        7.059000   -1.227000    4.482000
     20          7           0        7.239000   -1.523000    5.751000
     21          1           0       -1.939276   -0.227232    3.656001
     22          1           0       -2.402375   -0.510455    7.791290
     23          1           0        4.494035    0.593684   11.024211
 ---------------------------------------------------------------------
                    Distance matrix (angstroms):
                    1          2          3          4          5
     1  C    0.000000
     2  O    1.214524   0.000000
     3  N    1.312452   2.225791   0.000000
     4  C    2.376774   2.723550   1.413282   0.000000
     5  C    3.463276   3.909739   2.379931   1.517802   0.000000
     6  O    4.051269   4.747788   2.820212   2.342418   1.185064
     7  N    4.216133   4.374260   3.393743   2.428417   1.314153
     8  C    5.469895   5.705574   4.613657   3.789554   2.409005
     9  C    3.384550   3.724711   2.412291   1.529284   2.465868
    10  C    4.685745   4.816058   3.726622   2.481471   2.816510
    11  C    6.629158   6.672430   5.822061   4.780654   3.568270
    12  O    6.881148   6.713993   6.266732   5.208022   4.230189
    13  N    7.586285   7.718567   6.638802   5.546274   4.274472
    14  C    8.817103   8.833454   7.912431   6.729155   5.578581
    15  C    5.632250   5.868722   5.012829   4.542219   3.292552
    16  C    7.000512   7.306644   6.344428   5.929142   4.575226
    17  N    7.550663   7.891586   7.036611   6.847644   5.584477
    18  C    8.078801   8.407563   7.293648   6.742124   5.290351
    19  C    8.808096   9.181999   8.224107   7.990881   6.644636
    20  N    9.108986   9.474875   8.381276   7.957599   6.517549
    21  H    1.070000   1.999797   2.007583   3.309777   4.236945
    22  H    3.352836   3.535230   2.718807   2.156291   3.410220
    23  H    8.889495   8.801537   8.023352   6.741738   5.775757
                    6          7          8          9         10
     6  O    0.000000
     7  N    2.191227   0.000000
     8  C    2.713983   1.448795   0.000000
     9  C    2.886807   3.436734   4.679431   0.000000
    10  C    3.278270   3.356334   4.414280   1.515901   0.000000
    11  C    3.974033   2.436016   1.504245   5.466402   4.808918
    12  O    4.873134   2.951460   2.380947   5.989847   5.316186
    13  N    4.412092   3.390326   2.396931   5.952922   5.092795
    14  C    5.787452   4.638769   3.757872   7.016467   5.954819
    15  C    3.565905   2.425772   1.548963   5.723113   5.729397
    16  C    4.583379   3.782639   2.565800   7.022287   6.945102
    17  N    5.545010   4.900712   3.840313   8.049428   8.133670
    18  C    5.154723   4.499003   3.086280   7.644332   7.360540
    19  C    6.482723   5.959792   4.738923   9.101029   9.082918
    20  N    6.306894   5.780800   4.405183   8.909586   8.694735
    21  H    4.626886   5.044432   6.182916   4.230511   5.615355
    22  H    3.897826   4.312422   5.636398   1.070000   2.144396
    23  H    6.114603   4.854258   4.258564   6.895972   5.692816
                   11         12         13         14         15
    11  C    0.000000
    12  O    1.229557   0.000000
    13  N    1.320240   2.243557   0.000000
    14  C    2.406323   2.744700   1.444364   0.000000
    15  C    2.507445   2.947407   3.501900   4.733247   0.000000
    16  C    3.099774   3.592317   3.716290   4.794475   1.487570
    17  N    4.441023   4.789647   5.064992   6.067112   2.499904
    18  C    3.180534   3.808144   3.317155   4.195671   2.586698
    19  C    5.114209   5.506321   5.468901   6.298842   3.609637
    20  N    4.515311   5.022166   4.591022   5.294248   3.655111
    21  H    7.441337   7.736298   8.392569   9.676668   6.176665
    22  H    6.375015   6.779283   6.909247   7.905549   6.610317
    23  H    2.875033   2.964075   2.154261   1.070000   5.358352
                   16         17         18         19         20
    16  C    0.000000
    17  N    1.373716   0.000000
    18  C    1.341613   2.169815   0.000000
    19  C    2.198227   1.319579   2.184138   0.000000
    20  N    2.184345   2.132802   1.367935   1.315438   0.000000
    21  H    7.451244   7.844956   8.572885   9.091247   9.503093
    22  H    7.963409   8.951932   8.643047  10.049003   9.906773
    23  H    5.632485   6.929569   5.172343   7.259095   6.310462
                   21         22         23
    21  H    0.000000
    22  H    4.170766   0.000000
    23  H    9.815900   7.696192   0.000000
 Stoichiometry    C12H3N5O3(4+)
 Framework group  C1[X(C12H3N5O3)]
 Deg. of freedom    63
 Full point group                 C1      NOp   1
 Largest Abelian subgroup         C1      NOp   1
 Largest concise Abelian subgroup C1      NOp   1
                         Standard orientation:                         
 ---------------------------------------------------------------------
 Center     Atomic      Atomic             Coordinates (Angstroms)
 Number     Number       Type             X           Y           Z
 ---------------------------------------------------------------------
      1          6           0        4.273219   -1.933310    0.477933
      2          8           0        4.453652   -1.547308    1.615261
      3          7           0        3.644742   -1.228726   -0.433718
      4          6           0        3.106550    0.043969   -0.137131
      5          6           0        1.656864    0.070986   -0.585911
      6          8           0        1.391943   -0.126944   -1.723900
      7          7           0        0.741093    0.362724    0.310331
      8          6           0       -0.668349    0.357477   -0.025006
      9          6           0        3.861920    1.126119   -0.909836
     10          6           0        3.152311    2.453403   -0.728930
     11          6           0       -1.377886    1.530388    0.594340
     12          8           0       -1.445786    1.651760    1.816007
     13          7           0       -1.917446    2.390899   -0.249122
     14          6           0       -2.620056    3.558700    0.229171
     15          6           0       -1.276490   -0.972627    0.485165
     16          6           0       -2.679959   -1.232630    0.066193
     17          7           0       -3.252457   -2.475234    0.189791
     18          6           0       -3.607025   -0.451862   -0.509027
     19          6           0       -4.488651   -2.435833   -0.270167
     20          7           0       -4.732904   -1.209842   -0.679637
     21          1           0        4.580618   -2.905226    0.152686
     22          1           0        4.878418    1.189543   -0.581798
     23          1           0       -2.033395    4.328198    0.685901
 ---------------------------------------------------------------------
 Rotational constants (GHZ):           0.5450710           0.1937809           0.1601546
 Leave Link  202 at Wed Jan  5 16:30:24 2022, MaxMem=   402653184 cpu:               3.3 elap:               0.5
 (Enter /work/01114/jfonner/frontera/gaussian/16rC.01/g16/l301.exe)
 Standard basis: 6-31G (6D, 7F)
 Ernie: Thresh=  0.10000D-02 Tol=  0.10000D-05 Strict=F.
 There are   186 symmetry adapted cartesian basis functions of A   symmetry.
 There are   186 symmetry adapted basis functions of A   symmetry.
   186 basis functions,   452 primitive gaussians,   186 cartesian basis functions
    65 alpha electrons       65 beta electrons
       nuclear repulsion energy      1279.3426073086 Hartrees.
 IExCor= 4639 DFT=T Ex+Corr=wB97XD ExCW=0 ScaHFX=  1.000000
 ScaDFX=  1.000000  1.000000  1.000000  1.000000 ScalE2=  1.000000  1.000000
 IRadAn=      5 IRanWt=     -1 IRanGd=            0 ICorTp=0 IEmpDi=121
 HFx  wShort=  0.000000 wLong=  0.200000 cFull=  0.222036 cShort=  0.000000 cLong=  0.777964
 DFx  wShort=  0.000000 wLong=  0.200000 cFull=  0.000000 cShort=  0.000000 cLong=  1.000000
 NAtoms=   23 NActive=   23 NUniq=   23 SFac= 1.00D+00 NAtFMM=   60 NAOKFM=F Big=F
 Integral buffers will be    131072 words long.
 Raffenetti 2 integral format.
 Two-electron integral symmetry is turned on.
 R6Disp:  Grimme-D2 Dispersion energy=       -0.0116488227 Hartrees.
 Nuclear repulsion after empirical dispersion term =     1279.3309584859 Hartrees.
 Leave Link  301 at Wed Jan  5 16:30:25 2022, MaxMem=   402653184 cpu:               4.8 elap:               0.8
 (Enter /work/01114/jfonner/frontera/gaussian/16rC.01/g16/l302.exe)
 NPDir=0 NMtPBC=     1 NCelOv=     1 NCel=       1 NClECP=     1 NCelD=      1
         NCelK=      1 NCelE2=     1 NClLst=     1 CellRange=     0.0.
 One-electron integrals computed using PRISM.
 One-electron integral symmetry used in STVInt
 NBasis=   186 RedAO= T EigKep=  2.81D-03  NBF=   186
 NBsUse=   186 1.00D-06 EigRej= -1.00D+00 NBFU=   186
 Precomputing XC quadrature grid using
 IXCGrd= 4 IRadAn=           5 IRanWt=          -1 IRanGd=           0 AccXCQ= 1.00D-12.
 Generated NRdTot=       0 NPtTot=           0 NUsed=           0 NTot=          32
 NSgBfM=   183   183   183   183   183 MxSgAt=    23 MxSgA2=    23.
 Leave Link  302 at Wed Jan  5 16:30:34 2022, MaxMem=   402653184 cpu:              52.6 elap:               9.7
 (Enter /work/01114/jfonner/frontera/gaussian/16rC.01/g16/l303.exe)
 DipDrv:  MaxL=1.
 Leave Link  303 at Wed Jan  5 16:30:35 2022, MaxMem=   402653184 cpu:               7.2 elap:               1.2
 (Enter /work/01114/jfonner/frontera/gaussian/16rC.01/g16/l401.exe)
 ExpMin= 1.61D-01 ExpMax= 5.48D+03 ExpMxC= 8.25D+02 IAcc=3 IRadAn=         5 AccDes= 0.00D+00
 Harris functional with IExCor= 4639 and IRadAn=       5 diagonalized for initial guess.
 HarFok:  IExCor= 4639 AccDes= 0.00D+00 IRadAn=         5 IDoV= 1 UseB2=F ITyADJ=14
 ICtDFT=  3500011 ScaDFX=  1.000000  1.000000  1.000000  1.000000
 FoFCou: FMM=F IPFlag=           0 FMFlag=      100000 FMFlg1=           0
         NFxFlg=           0 DoJE=T BraDBF=F KetDBF=T FulRan=T
         wScrn=  0.000000 ICntrl=       500 IOpCl=  0 I1Cent=   200000004 NGrid=           0
         NMat0=    1 NMatS0=      1 NMatT0=    0 NMatD0=    1 NMtDS0=    0 NMtDT0=    0
 Petite list used in FoFCou.
 Harris En= -918.744281906633    
 JPrj=0 DoOrth=F DoCkMO=F.
 Leave Link  401 at Wed Jan  5 16:30:52 2022, MaxMem=   402653184 cpu:              78.4 elap:              16.1
 (Enter /work/01114/jfonner/frontera/gaussian/16rC.01/g16/l502.exe)
 Integral symmetry usage will be decided dynamically.
 Closed shell SCF:
 Using DIIS extrapolation, IDIIS=  1040.
 NGot=   402653184 LenX=   402570846 LenY=   402535809
 Requested convergence on RMS density matrix=1.00D-08 within 128 cycles.
 Requested convergence on MAX density matrix=1.00D-06.
 Requested convergence on             energy=1.00D-06.
 No special actions if energy rises.
 Fock matrices will be formed incrementally for  20 cycles.
 Integral accuracy reduced to 1.0D-05 until final iterations.

 Cycle   1  Pass 0  IDiag  1:
 FoFJK:  IHMeth= 1 ICntrl=       0 DoSepK=T KAlg= 0 I1Cent=           0 FoldK=F
 IRaf=         1 NMat=       1 IRICut=       1 DoRegI=T DoRafI=F ISym2E= 0 IDoP0=0 IntGTp=1.
 FoFCou: FMM=F IPFlag=           0 FMFlag=      100000 FMFlg1=           0
         NFxFlg=           0 DoJE=T BraDBF=F KetDBF=F FulRan=T
         wScrn=  0.000000 ICntrl=       500 IOpCl=  0 I1Cent=           0 NGrid=           0
         NMat0=    1 NMatS0=      1 NMatT0=    0 NMatD0=    1 NMtDS0=    0 NMtDT0=    0
 Symmetry not used in FoFCou.
 E= -953.803273205491    
 DIIS: error= 3.29D-02 at cycle   1 NSaved=   1.
 NSaved= 1 IEnMin= 1 EnMin= -953.803273205491     IErMin= 1 ErrMin= 3.29D-02
 ErrMax= 3.29D-02  0.00D+00 EMaxC= 1.00D-01 BMatC= 7.23D-01 BMatP= 7.23D-01
 IDIUse=3 WtCom= 6.71D-01 WtEn= 3.29D-01
 Coeff-Com:  0.100D+01
 Coeff-En:   0.100D+01
 Coeff:      0.100D+01
 Gap=     0.187 Goal=   None    Shift=    0.000
 GapD=    0.187 DampG=1.000 DampE=0.500 DampFc=0.5000 IDamp=-1.
 Damping current iteration by 5.00D-01
 RMSDP=1.34D-02 MaxDP=3.60D-01              OVMax= 9.29D-01

 Cycle   2  Pass 0  IDiag  1:
 RMSU=  6.71D-03    CP:  9.95D-01
 E= -953.253150379400     Delta-E=        0.550122826091 Rises=F Damp=T
 DIIS: error= 4.40D-02 at cycle   2 NSaved=   2.
 NSaved= 2 IEnMin= 1 EnMin= -953.803273205491     IErMin= 1 ErrMin= 3.29D-02
 ErrMax= 4.40D-02  0.00D+00 EMaxC= 1.00D-01 BMatC= 4.53D-01 BMatP= 7.23D-01
 IDIUse=3 WtCom= 5.60D-01 WtEn= 4.40D-01
 Coeff-Com:  0.361D+00 0.639D+00
 Coeff-En:   0.716D+00 0.284D+00
 Coeff:      0.517D+00 0.483D+00
 Gap=    -0.210 Goal=   None    Shift=    0.000
 RMSDP=7.86D-03 MaxDP=2.85D-01 DE= 5.50D-01 OVMax= 9.27D-01

 Cycle   3  Pass 0  IDiag  1:
 RMSU=  7.31D-03    CP:  1.01D+00  5.78D-01
 E= -953.513545863284     Delta-E=       -0.260395483883 Rises=F Damp=F
 DIIS: error= 6.17D-02 at cycle   3 NSaved=   3.
 NSaved= 3 IEnMin= 1 EnMin= -953.803273205491     IErMin= 1 ErrMin= 3.29D-02
 ErrMax= 6.17D-02  0.00D+00 EMaxC= 1.00D-01 BMatC= 6.25D-01 BMatP= 4.53D-01
 IDIUse=2 WtCom= 0.00D+00 WtEn= 1.00D+00
 EnCoef did     2 forward-backward iterations
 Coeff-En:   0.105D+00 0.409D+00 0.486D+00
 Coeff:      0.105D+00 0.409D+00 0.486D+00
 Gap=     0.142 Goal=   None    Shift=    0.000
 RMSDP=9.72D-03 MaxDP=3.96D-01 DE=-2.60D-01 OVMax= 9.84D-01

 Cycle   4  Pass 0  IDiag  1:
 RMSU=  6.50D-03    CP:  1.00D+00  1.10D+00  1.37D-01
 E= -952.555249139863     Delta-E=        0.958296723421 Rises=F Damp=F
 DIIS: error= 6.72D-02 at cycle   4 NSaved=   4.
 NSaved= 4 IEnMin= 1 EnMin= -953.803273205491     IErMin= 1 ErrMin= 3.29D-02
 ErrMax= 6.72D-02  0.00D+00 EMaxC= 1.00D-01 BMatC= 9.12D-01 BMatP= 4.53D-01
 IDIUse=2 WtCom= 0.00D+00 WtEn= 1.00D+00
 Coeff-En:   0.000D+00 0.000D+00 0.602D+00 0.398D+00
 Coeff:      0.000D+00 0.000D+00 0.602D+00 0.398D+00
 Gap=     0.079 Goal=   None    Shift=    0.000
 RMSDP=8.80D-03 MaxDP=3.19D-01 DE= 9.58D-01 OVMax= 7.36D-01

 Cycle   5  Pass 0  IDiag  1:
 RMSU=  5.19D-03    CP:  1.01D+00  7.22D-01  4.15D-01  3.09D-02
 E= -953.936746600740     Delta-E=       -1.381497460877 Rises=F Damp=F
 DIIS: error= 5.58D-02 at cycle   5 NSaved=   5.
 NSaved= 5 IEnMin= 5 EnMin= -953.936746600740     IErMin= 1 ErrMin= 3.29D-02
 ErrMax= 5.58D-02  0.00D+00 EMaxC= 1.00D-01 BMatC= 5.11D-01 BMatP= 4.53D-01
 IDIUse=2 WtCom= 0.00D+00 WtEn= 1.00D+00
 EnCoef did     7 forward-backward iterations
 Coeff-En:   0.000D+00 0.000D+00 0.397D+00 0.323D+00 0.280D+00
 Coeff:      0.000D+00 0.000D+00 0.397D+00 0.323D+00 0.280D+00
 Gap=     0.097 Goal=   None    Shift=    0.000
 RMSDP=4.58D-03 MaxDP=2.43D-01 DE=-1.38D+00 OVMax= 2.82D-01

 Cycle   6  Pass 0  IDiag  1:
 RMSU=  3.16D-03    CP:  1.02D+00  6.47D-01  4.81D-01  1.34D-01  3.92D-01
 E= -954.464164175414     Delta-E=       -0.527417574673 Rises=F Damp=F
 DIIS: error= 1.69D-02 at cycle   6 NSaved=   6.
 NSaved= 6 IEnMin= 6 EnMin= -954.464164175414     IErMin= 6 ErrMin= 1.69D-02
 ErrMax= 1.69D-02  0.00D+00 EMaxC= 1.00D-01 BMatC= 5.16D-02 BMatP= 4.53D-01
 IDIUse=3 WtCom= 8.31D-01 WtEn= 1.69D-01
 EnCoef did     2 forward-backward iterations
 Coeff-Com: -0.227D-01 0.120D+00 0.814D-01 0.876D-01 0.146D+00 0.588D+00
 Coeff-En:   0.000D+00 0.000D+00 0.000D+00 0.222D-01 0.174D-01 0.960D+00
 Coeff:     -0.189D-01 0.996D-01 0.676D-01 0.766D-01 0.124D+00 0.651D+00
 Gap=     0.092 Goal=   None    Shift=    0.000
 RMSDP=1.97D-03 MaxDP=6.41D-02 DE=-5.27D-01 OVMax= 1.63D-01

 Cycle   7  Pass 0  IDiag  1:
 RMSU=  1.76D-03    CP:  1.02D+00  6.83D-01  4.47D-01  1.76D-01  5.17D-01
                    CP:  8.72D-01
 E= -954.528016049586     Delta-E=       -0.063851874173 Rises=F Damp=F
 DIIS: error= 8.33D-03 at cycle   7 NSaved=   7.
 NSaved= 7 IEnMin= 7 EnMin= -954.528016049586     IErMin= 7 ErrMin= 8.33D-03
 ErrMax= 8.33D-03  0.00D+00 EMaxC= 1.00D-01 BMatC= 1.58D-02 BMatP= 5.16D-02
 IDIUse=3 WtCom= 9.17D-01 WtEn= 8.33D-02
 Coeff-Com: -0.401D-01 0.815D-01-0.131D-01 0.834D-02-0.109D-02 0.339D+00
 Coeff-Com:  0.626D+00
 Coeff-En:   0.000D+00 0.000D+00 0.000D+00 0.000D+00 0.000D+00 0.000D+00
 Coeff-En:   0.100D+01
 Coeff:     -0.367D-01 0.747D-01-0.120D-01 0.764D-02-0.100D-02 0.310D+00
 Coeff:      0.657D+00
 Gap=     0.116 Goal=   None    Shift=    0.000
 RMSDP=1.07D-03 MaxDP=2.47D-02 DE=-6.39D-02 OVMax= 9.88D-02

 Cycle   8  Pass 0  IDiag  1:
 RMSU=  9.12D-04    CP:  1.02D+00  7.23D-01  4.17D-01  1.97D-01  5.02D-01
                    CP:  1.00D+00  9.49D-01
 E= -954.549074392292     Delta-E=       -0.021058342706 Rises=F Damp=F
 DIIS: error= 5.23D-03 at cycle   8 NSaved=   8.
 NSaved= 8 IEnMin= 8 EnMin= -954.549074392292     IErMin= 8 ErrMin= 5.23D-03
 ErrMax= 5.23D-03  0.00D+00 EMaxC= 1.00D-01 BMatC= 5.39D-03 BMatP= 1.58D-02
 IDIUse=3 WtCom= 9.48D-01 WtEn= 5.23D-02
 Coeff-Com: -0.256D-01 0.539D-01-0.140D-01-0.802D-02-0.150D-01 0.898D-01
 Coeff-Com:  0.424D+00 0.494D+00
 Coeff-En:   0.000D+00 0.000D+00 0.000D+00 0.000D+00 0.000D+00 0.000D+00
 Coeff-En:   0.000D+00 0.100D+01
 Coeff:     -0.243D-01 0.511D-01-0.133D-01-0.760D-02-0.142D-01 0.851D-01
 Coeff:      0.402D+00 0.521D+00
 Gap=     0.130 Goal=   None    Shift=    0.000
 RMSDP=5.49D-04 MaxDP=1.19D-02 DE=-2.11D-02 OVMax= 3.87D-02

 Cycle   9  Pass 0  IDiag  1:
 RMSU=  4.58D-04    CP:  1.02D+00  7.20D-01  4.18D-01  2.04D-01  5.11D-01
                    CP:  9.96D-01  1.11D+00  1.07D+00
 E= -954.556498456310     Delta-E=       -0.007424064019 Rises=F Damp=F
 DIIS: error= 3.57D-03 at cycle   9 NSaved=   9.
 NSaved= 9 IEnMin= 9 EnMin= -954.556498456310     IErMin= 9 ErrMin= 3.57D-03
 ErrMax= 3.57D-03  0.00D+00 EMaxC= 1.00D-01 BMatC= 9.42D-04 BMatP= 5.39D-03
 IDIUse=3 WtCom= 9.64D-01 WtEn= 3.57D-02
 Coeff-Com: -0.652D-02 0.177D-01 0.224D-02-0.971D-02 0.790D-02-0.606D-01
 Coeff-Com: -0.378D-01 0.257D+00 0.829D+00
 Coeff-En:   0.000D+00 0.000D+00 0.000D+00 0.000D+00 0.000D+00 0.000D+00
 Coeff-En:   0.000D+00 0.000D+00 0.100D+01
 Coeff:     -0.629D-02 0.171D-01 0.216D-02-0.936D-02 0.761D-02-0.584D-01
 Coeff:     -0.364D-01 0.248D+00 0.835D+00
 Gap=     0.138 Goal=   None    Shift=    0.000
 RMSDP=5.61D-04 MaxDP=7.44D-03 DE=-7.42D-03 OVMax= 5.74D-02

 Cycle  10  Pass 0  IDiag  1:
 RMSU=  2.41D-04    CP:  1.02D+00  7.34D-01  4.13D-01  2.15D-01  5.10D-01
                    CP:  1.00D+00  1.22D+00  1.51D+00  1.45D+00
 E= -954.560099799703     Delta-E=       -0.003601343392 Rises=F Damp=F
 DIIS: error= 2.95D-03 at cycle  10 NSaved=  10.
 NSaved=10 IEnMin=10 EnMin= -954.560099799703     IErMin=10 ErrMin= 2.95D-03
 ErrMax= 2.95D-03  0.00D+00 EMaxC= 1.00D-01 BMatC= 7.21D-04 BMatP= 9.42D-04
 IDIUse=3 WtCom= 9.71D-01 WtEn= 2.95D-02
 Coeff-Com:  0.111D-02 0.586D-03 0.636D-02-0.743D-02 0.170D-01-0.755D-01
 Coeff-Com: -0.132D+00 0.747D-01 0.628D+00 0.487D+00
 Coeff-En:   0.000D+00 0.000D+00 0.000D+00 0.000D+00 0.000D+00 0.000D+00
 Coeff-En:   0.000D+00 0.000D+00 0.000D+00 0.100D+01
 Coeff:      0.108D-02 0.569D-03 0.617D-02-0.721D-02 0.165D-01-0.733D-01
 Coeff:     -0.128D+00 0.724D-01 0.609D+00 0.502D+00
 Gap=     0.143 Goal=   None    Shift=    0.000
 RMSDP=3.27D-04 MaxDP=4.79D-03 DE=-3.60D-03 OVMax= 3.17D-02

 Cycle  11  Pass 0  IDiag  1:
 RMSU=  1.58D-04    CP:  1.02D+00  7.41D-01  4.14D-01  2.23D-01  5.12D-01
                    CP:  9.93D-01  1.26D+00  1.72D+00  1.84D+00  1.06D+00
 E= -954.561792746103     Delta-E=       -0.001692946400 Rises=F Damp=F
 DIIS: error= 1.53D-03 at cycle  11 NSaved=  11.
 NSaved=11 IEnMin=11 EnMin= -954.561792746103     IErMin=11 ErrMin= 1.53D-03
 ErrMax= 1.53D-03  0.00D+00 EMaxC= 1.00D-01 BMatC= 3.83D-04 BMatP= 7.21D-04
 IDIUse=3 WtCom= 9.85D-01 WtEn= 1.53D-02
 Coeff-Com:  0.419D-02-0.890D-02 0.362D-02-0.447D-02 0.171D-01-0.398D-01
 Coeff-Com: -0.579D-01 0.581D-02 0.799D-01 0.310D+00 0.690D+00
 Coeff-En:   0.000D+00 0.000D+00 0.000D+00 0.000D+00 0.000D+00 0.000D+00
 Coeff-En:   0.000D+00 0.000D+00 0.000D+00 0.000D+00 0.100D+01
 Coeff:      0.413D-02-0.877D-02 0.357D-02-0.440D-02 0.169D-01-0.392D-01
 Coeff:     -0.570D-01 0.572D-02 0.787D-01 0.305D+00 0.695D+00
 Gap=     0.145 Goal=   None    Shift=    0.000
 RMSDP=2.80D-04 MaxDP=4.02D-03 DE=-1.69D-03 OVMax= 2.62D-02

 Cycle  12  Pass 0  IDiag  1:
 RMSU=  8.31D-05    CP:  1.02D+00  7.43D-01  4.15D-01  2.28D-01  5.11D-01
                    CP:  9.80D-01  1.30D+00  1.89D+00  2.16D+00  1.54D+00
                    CP:  1.46D+00
 E= -954.562911740921     Delta-E=       -0.001118994818 Rises=F Damp=F
 DIIS: error= 1.25D-03 at cycle  12 NSaved=  12.
 NSaved=12 IEnMin=12 EnMin= -954.562911740921     IErMin=12 ErrMin= 1.25D-03
 ErrMax= 1.25D-03  0.00D+00 EMaxC= 1.00D-01 BMatC= 2.49D-04 BMatP= 3.83D-04
 IDIUse=3 WtCom= 9.88D-01 WtEn= 1.25D-02
 Coeff-Com:  0.438D-02-0.111D-01 0.493D-03-0.147D-02 0.964D-02 0.456D-02
 Coeff-Com:  0.513D-01 0.248D-01-0.301D+00-0.100D+00 0.334D+00 0.985D+00
 Coeff-En:   0.000D+00 0.000D+00 0.000D+00 0.000D+00 0.000D+00 0.000D+00
 Coeff-En:   0.000D+00 0.000D+00 0.000D+00 0.000D+00 0.000D+00 0.100D+01
 Coeff:      0.432D-02-0.109D-01 0.487D-03-0.145D-02 0.952D-02 0.450D-02
 Coeff:      0.506D-01 0.245D-01-0.298D+00-0.988D-01 0.330D+00 0.985D+00
 Gap=     0.148 Goal=   None    Shift=    0.000
 RMSDP=3.33D-04 MaxDP=5.59D-03 DE=-1.12D-03 OVMax= 3.02D-02

 Cycle  13  Pass 0  IDiag  1:
 RMSU=  7.34D-05    CP:  1.02D+00  7.45D-01  4.17D-01  2.34D-01  5.06D-01
                    CP:  9.61D-01  1.33D+00  2.04D+00  2.52D+00  2.12D+00
                    CP:  2.40D+00  2.02D+00
 E= -954.564019124734     Delta-E=       -0.001107383814 Rises=F Damp=F
 DIIS: error= 1.11D-03 at cycle  13 NSaved=  13.
 NSaved=13 IEnMin=13 EnMin= -954.564019124734     IErMin=13 ErrMin= 1.11D-03
 ErrMax= 1.11D-03  0.00D+00 EMaxC= 1.00D-01 BMatC= 1.52D-04 BMatP= 2.49D-04
 IDIUse=3 WtCom= 9.89D-01 WtEn= 1.11D-02
 Coeff-Com:  0.392D-02-0.876D-02-0.197D-03-0.728D-03 0.196D-02 0.119D-01
 Coeff-Com:  0.588D-01 0.555D-01-0.212D+00-0.221D+00-0.288D+00 0.704D+00
 Coeff-Com:  0.895D+00
 Coeff-En:   0.000D+00 0.000D+00 0.000D+00 0.000D+00 0.000D+00 0.000D+00
 Coeff-En:   0.000D+00 0.000D+00 0.000D+00 0.000D+00 0.000D+00 0.000D+00
 Coeff-En:   0.100D+01
 Coeff:      0.387D-02-0.866D-02-0.195D-03-0.720D-03 0.194D-02 0.118D-01
 Coeff:      0.581D-01 0.549D-01-0.210D+00-0.218D+00-0.285D+00 0.696D+00
 Coeff:      0.896D+00
 Gap=     0.150 Goal=   None    Shift=    0.000
 RMSDP=3.24D-04 MaxDP=6.03D-03 DE=-1.11D-03 OVMax= 2.86D-02

 Cycle  14  Pass 0  IDiag  1:
 RMSU=  9.57D-05    CP:  1.02D+00  7.47D-01  4.21D-01  2.39D-01  4.97D-01
                    CP:  9.44D-01  1.35D+00  2.16D+00  2.83D+00  2.65D+00
                    CP:  3.00D+00  3.00D+00  1.99D+00
 E= -954.564924082268     Delta-E=       -0.000904957534 Rises=F Damp=F
 DIIS: error= 8.26D-04 at cycle  14 NSaved=  14.
 NSaved=14 IEnMin=14 EnMin= -954.564924082268     IErMin=14 ErrMin= 8.26D-04
 ErrMax= 8.26D-04  0.00D+00 EMaxC= 1.00D-01 BMatC= 8.70D-05 BMatP= 1.52D-04
 IDIUse=3 WtCom= 9.92D-01 WtEn= 8.26D-03
 Coeff-Com:  0.110D-02-0.260D-02 0.364D-03-0.102D-02-0.831D-03 0.444D-02
 Coeff-Com: -0.226D-02 0.535D-01 0.120D+00-0.350D-01-0.502D+00-0.250D+00
 Coeff-Com:  0.585D+00 0.103D+01
 Coeff-En:   0.000D+00 0.000D+00 0.000D+00 0.000D+00 0.000D+00 0.000D+00
 Coeff-En:   0.000D+00 0.000D+00 0.000D+00 0.000D+00 0.000D+00 0.000D+00
 Coeff-En:   0.000D+00 0.100D+01
 Coeff:      0.109D-02-0.258D-02 0.361D-03-0.102D-02-0.824D-03 0.441D-02
 Coeff:     -0.224D-02 0.530D-01 0.119D+00-0.347D-01-0.498D+00-0.248D+00
 Coeff:      0.580D+00 0.103D+01
 Gap=     0.151 Goal=   None    Shift=    0.000
 RMSDP=3.19D-04 MaxDP=6.40D-03 DE=-9.05D-04 OVMax= 2.62D-02

 Cycle  15  Pass 0  IDiag  1:
 RMSU=  1.26D-04    CP:  1.02D+00  7.47D-01  4.24D-01  2.43D-01  4.84D-01
                    CP:  9.26D-01  1.36D+00  2.21D+00  3.00D+00  3.00D+00
                    CP:  3.00D+00  3.00D+00  3.00D+00  3.00D+00
 E= -954.565710079559     Delta-E=       -0.000785997292 Rises=F Damp=F
 DIIS: error= 6.50D-04 at cycle  15 NSaved=  15.
 NSaved=15 IEnMin=15 EnMin= -954.565710079559     IErMin=15 ErrMin= 6.50D-04
 ErrMax= 6.50D-04  0.00D+00 EMaxC= 1.00D-01 BMatC= 4.50D-05 BMatP= 8.70D-05
 IDIUse=3 WtCom= 9.94D-01 WtEn= 6.50D-03
 Coeff-Com: -0.558D-04-0.499D-03-0.352D-03-0.703D-03 0.103D-02-0.653D-03
 Coeff-Com: -0.352D-01 0.207D-01 0.212D+00 0.105D+00-0.253D+00-0.554D+00
 Coeff-Com: -0.123D+00 0.727D+00 0.901D+00
 Coeff-En:   0.000D+00 0.000D+00 0.000D+00 0.000D+00 0.000D+00 0.000D+00
 Coeff-En:   0.000D+00 0.000D+00 0.000D+00 0.000D+00 0.000D+00 0.000D+00
 Coeff-En:   0.000D+00 0.000D+00 0.100D+01
 Coeff:     -0.554D-04-0.496D-03-0.350D-03-0.698D-03 0.102D-02-0.649D-03
 Coeff:     -0.350D-01 0.205D-01 0.210D+00 0.104D+00-0.251D+00-0.550D+00
 Coeff:     -0.122D+00 0.722D+00 0.902D+00
 Gap=     0.152 Goal=   None    Shift=    0.000
 RMSDP=3.07D-04 MaxDP=5.97D-03 DE=-7.86D-04 OVMax= 2.40D-02

 Cycle  16  Pass 0  IDiag  1:
 RMSU=  2.38D-04    CP:  1.02D+00  7.48D-01  4.27D-01  2.48D-01  4.71D-01
                    CP:  9.09D-01  1.35D+00  2.25D+00  3.00D+00  3.00D+00
                    CP:  3.00D+00  3.00D+00  3.00D+00  3.00D+00  2.33D+00
 E= -954.566315668544     Delta-E=       -0.000605588984 Rises=F Damp=F
 DIIS: error= 6.38D-04 at cycle  16 NSaved=  16.
 NSaved=16 IEnMin=16 EnMin= -954.566315668544     IErMin=16 ErrMin= 6.38D-04
 ErrMax= 6.38D-04  0.00D+00 EMaxC= 1.00D-01 BMatC= 2.84D-05 BMatP= 4.50D-05
 IDIUse=3 WtCom= 9.94D-01 WtEn= 6.38D-03
 Coeff-Com: -0.144D-03-0.108D-02-0.159D-02-0.157D-03 0.310D-02 0.238D-02
 Coeff-Com: -0.194D-01 0.286D-02 0.106D+00 0.747D-01-0.201D-01-0.293D+00
 Coeff-Com: -0.259D+00 0.315D-01 0.600D+00 0.773D+00
 Coeff-En:   0.000D+00 0.000D+00 0.000D+00 0.000D+00 0.000D+00 0.000D+00
 Coeff-En:   0.000D+00 0.000D+00 0.000D+00 0.000D+00 0.000D+00 0.000D+00
 Coeff-En:   0.000D+00 0.000D+00 0.000D+00 0.100D+01
 Coeff:     -0.143D-03-0.107D-02-0.158D-02-0.156D-03 0.308D-02 0.237D-02
 Coeff:     -0.192D-01 0.284D-02 0.106D+00 0.742D-01-0.200D-01-0.291D+00
 Coeff:     -0.257D+00 0.313D-01 0.596D+00 0.775D+00
 Gap=     0.152 Goal=   None    Shift=    0.000
 RMSDP=2.24D-04 MaxDP=4.49D-03 DE=-6.06D-04 OVMax= 1.68D-02

 Cycle  17  Pass 0  IDiag  1:
 RMSU=  5.33D-05    CP:  1.02D+00  7.49D-01  4.29D-01  2.52D-01  4.61D-01
                    CP:  8.95D-01  1.35D+00  2.25D+00  3.00D+00  3.00D+00
                    CP:  3.00D+00  3.00D+00  3.00D+00  3.00D+00  3.00D+00
                    CP:  1.71D+00
 E= -954.566680676795     Delta-E=       -0.000365008251 Rises=F Damp=F
 DIIS: error= 3.46D-04 at cycle  17 NSaved=  17.
 NSaved=17 IEnMin=17 EnMin= -954.566680676795     IErMin=17 ErrMin= 3.46D-04
 ErrMax= 3.46D-04  0.00D+00 EMaxC= 1.00D-01 BMatC= 1.97D-05 BMatP= 2.84D-05
 IDIUse=3 WtCom= 9.97D-01 WtEn= 3.46D-03
 Coeff-Com:  0.184D-03-0.141D-02-0.132D-02-0.148D-03 0.266D-02 0.170D-02
 Coeff-Com: -0.555D-03 0.819D-02 0.276D-01 0.105D-01 0.104D-01-0.116D+00
 Coeff-Com:  0.279D-01-0.229D+00 0.742D-01 0.271D+00 0.914D+00
 Coeff-En:   0.000D+00 0.000D+00 0.000D+00 0.000D+00 0.000D+00 0.000D+00
 Coeff-En:   0.000D+00 0.000D+00 0.000D+00 0.000D+00 0.000D+00 0.000D+00
 Coeff-En:   0.000D+00 0.000D+00 0.000D+00 0.000D+00 0.100D+01
 Coeff:      0.183D-03-0.140D-02-0.132D-02-0.148D-03 0.265D-02 0.170D-02
 Coeff:     -0.553D-03 0.816D-02 0.275D-01 0.105D-01 0.104D-01-0.116D+00
 Coeff:      0.278D-01-0.228D+00 0.740D-01 0.270D+00 0.914D+00
 Gap=     0.152 Goal=   None    Shift=    0.000
 RMSDP=1.89D-04 MaxDP=4.11D-03 DE=-3.65D-04 OVMax= 1.48D-02

 Cycle  18  Pass 0  IDiag  1:
 RMSU=  4.92D-05    CP:  1.02D+00  7.50D-01  4.31D-01  2.57D-01  4.53D-01
                    CP:  8.83D-01  1.34D+00  2.25D+00  3.00D+00  3.00D+00
                    CP:  3.00D+00  3.00D+00  3.00D+00  3.00D+00  3.00D+00
                    CP:  2.28D+00  2.90D+00
 E= -954.566942364913     Delta-E=       -0.000261688118 Rises=F Damp=F
 DIIS: error= 3.32D-04 at cycle  18 NSaved=  18.
 NSaved=18 IEnMin=18 EnMin= -954.566942364913     IErMin=18 ErrMin= 3.32D-04
 ErrMax= 3.32D-04  0.00D+00 EMaxC= 1.00D-01 BMatC= 1.45D-05 BMatP= 1.97D-05
 IDIUse=3 WtCom= 9.97D-01 WtEn= 3.32D-03
 Coeff-Com:  0.482D-03-0.537D-03 0.613D-03-0.931D-03 0.289D-03-0.337D-02
 Coeff-Com:  0.200D-02 0.222D-01 0.198D-01-0.233D-01-0.974D-01-0.139D+00
 Coeff-Com:  0.414D+00 0.297D-01-0.283D+00-0.804D+00 0.405D+00 0.146D+01
 Coeff-En:   0.000D+00 0.000D+00 0.000D+00 0.000D+00 0.000D+00 0.000D+00
 Coeff-En:   0.000D+00 0.000D+00 0.000D+00 0.000D+00 0.000D+00 0.000D+00
 Coeff-En:   0.000D+00 0.000D+00 0.000D+00 0.000D+00 0.000D+00 0.100D+01
 Coeff:      0.480D-03-0.536D-03 0.611D-03-0.928D-03 0.288D-03-0.336D-02
 Coeff:      0.199D-02 0.222D-01 0.197D-01-0.233D-01-0.971D-01-0.138D+00
 Coeff:      0.413D+00 0.296D-01-0.282D+00-0.801D+00 0.404D+00 0.145D+01
 Gap=     0.152 Goal=   None    Shift=    0.000
 RMSDP=2.80D-04 MaxDP=6.61D-03 DE=-2.62D-04 OVMax= 2.40D-02

 Cycle  19  Pass 0  IDiag  1:
 RMSU=  1.61D-04    CP:  1.02D+00  7.53D-01  4.34D-01  2.64D-01  4.41D-01
                    CP:  8.62D-01  1.32D+00  2.25D+00  3.00D+00  3.00D+00
                    CP:  3.00D+00  3.00D+00  3.00D+00  3.00D+00  3.00D+00
                    CP:  3.00D+00  3.00D+00  2.11D+00
 E= -954.567254476270     Delta-E=       -0.000312111357 Rises=F Damp=F
 DIIS: error= 2.46D-04 at cycle  19 NSaved=  19.
 NSaved=19 IEnMin=19 EnMin= -954.567254476270     IErMin=19 ErrMin= 2.46D-04
 ErrMax= 2.46D-04  0.00D+00 EMaxC= 1.00D-01 BMatC= 1.18D-05 BMatP= 1.45D-05
 IDIUse=3 WtCom= 9.98D-01 WtEn= 2.46D-03
 Coeff-Com:  0.209D-03-0.342D-03 0.807D-03-0.120D-02 0.563D-03-0.386D-02
 Coeff-Com: -0.141D-01 0.194D-01 0.780D-01 0.197D-01-0.106D+00-0.237D+00
 Coeff-Com:  0.210D+00 0.272D+00-0.261D-01-0.304D+00-0.666D+00 0.728D+00
 Coeff-Com:  0.103D+01
 Coeff-En:   0.000D+00 0.000D+00 0.000D+00 0.000D+00 0.000D+00 0.000D+00
 Coeff-En:   0.000D+00 0.000D+00 0.000D+00 0.000D+00 0.000D+00 0.000D+00
 Coeff-En:   0.000D+00 0.000D+00 0.000D+00 0.000D+00 0.000D+00 0.000D+00
 Coeff-En:   0.100D+01
 Coeff:      0.208D-03-0.341D-03 0.805D-03-0.120D-02 0.562D-03-0.385D-02
 Coeff:     -0.141D-01 0.193D-01 0.778D-01 0.196D-01-0.105D+00-0.237D+00
 Coeff:      0.209D+00 0.272D+00-0.261D-01-0.303D+00-0.664D+00 0.726D+00
 Coeff:      0.103D+01
 Gap=     0.152 Goal=   None    Shift=    0.000
 RMSDP=1.35D-04 MaxDP=3.61D-03 DE=-3.12D-04 OVMax= 1.29D-02

 Cycle  20  Pass 0  IDiag  1:
 RMSU=  7.33D-05    CP:  1.02D+00  7.55D-01  4.35D-01  2.67D-01  4.35D-01
                    CP:  8.53D-01  1.31D+00  2.25D+00  3.00D+00  3.00D+00
                    CP:  3.00D+00  3.00D+00  3.00D+00  3.00D+00  3.00D+00
                    CP:  3.00D+00  3.00D+00  2.40D+00  1.62D+00
 E= -954.567387441626     Delta-E=       -0.000132965356 Rises=F Damp=F
 DIIS: error= 2.28D-04 at cycle  20 NSaved=  20.
 NSaved=20 IEnMin=20 EnMin= -954.567387441626     IErMin=20 ErrMin= 2.28D-04
 ErrMax= 2.28D-04  0.00D+00 EMaxC= 1.00D-01 BMatC= 9.54D-06 BMatP= 1.18D-05
 IDIUse=3 WtCom= 9.98D-01 WtEn= 2.28D-03
 Coeff-Com: -0.618D-04-0.435D-03 0.478D-03-0.104D-02 0.110D-02-0.137D-02
 Coeff-Com: -0.194D-01 0.794D-02 0.763D-01 0.422D-01-0.617D-01-0.222D+00
 Coeff-Com: -0.598D-01 0.270D+00 0.193D+00 0.550D+00-0.125D+01-0.345D+00
 Coeff-Com:  0.843D+00 0.976D+00
 Coeff-En:   0.000D+00 0.000D+00 0.000D+00 0.000D+00 0.000D+00 0.000D+00
 Coeff-En:   0.000D+00 0.000D+00 0.000D+00 0.000D+00 0.000D+00 0.000D+00
 Coeff-En:   0.000D+00 0.000D+00 0.000D+00 0.000D+00 0.000D+00 0.000D+00
 Coeff-En:   0.000D+00 0.100D+01
 Coeff:     -0.617D-04-0.434D-03 0.477D-03-0.104D-02 0.110D-02-0.137D-02
 Coeff:     -0.194D-01 0.793D-02 0.761D-01 0.421D-01-0.616D-01-0.221D+00
 Coeff:     -0.597D-01 0.269D+00 0.193D+00 0.549D+00-0.125D+01-0.344D+00
 Coeff:      0.841D+00 0.976D+00
 Gap=     0.151 Goal=   None    Shift=    0.000
 RMSDP=1.77D-04 MaxDP=4.90D-03 DE=-1.33D-04 OVMax= 1.69D-02

 Cycle  21  Pass 0  IDiag  1:
 Restarting incremental Fock formation.
 E= -954.567523307338     Delta-E=       -0.000135865712 Rises=F Damp=F
 DIIS: error= 1.93D-04 at cycle  21 NSaved=  20.
 NSaved=20 IEnMin=20 EnMin= -954.567523307338     IErMin=20 ErrMin= 1.93D-04
 ErrMax= 1.93D-04  0.00D+00 EMaxC= 1.00D-01 BMatC= 7.40D-06 BMatP= 9.54D-06
 IDIUse=3 WtCom= 9.98D-01 WtEn= 1.93D-03
 Coeff-Com: -0.234D-04-0.508D-03 0.160D-03 0.108D-02 0.184D-02-0.120D-02
 Coeff-Com:  0.480D-02 0.148D-01 0.384D-03-0.195D-01-0.972D-01-0.320D-01
 Coeff-Com:  0.301D-01 0.123D+00 0.610D+00-0.478D+00-0.514D+00-0.485D+00
 Coeff-Com:  0.590D+00 0.125D+01
 Coeff-En:   0.000D+00 0.000D+00 0.000D+00 0.000D+00 0.000D+00 0.000D+00
 Coeff-En:   0.000D+00 0.000D+00 0.000D+00 0.000D+00 0.000D+00 0.000D+00
 Coeff-En:   0.000D+00 0.000D+00 0.000D+00 0.000D+00 0.000D+00 0.000D+00
 Coeff-En:   0.000D+00 0.100D+01
 Coeff:     -0.233D-04-0.507D-03 0.160D-03 0.108D-02 0.184D-02-0.120D-02
 Coeff:      0.480D-02 0.147D-01 0.384D-03-0.195D-01-0.970D-01-0.319D-01
 Coeff:      0.301D-01 0.123D+00 0.609D+00-0.477D+00-0.513D+00-0.484D+00
 Coeff:      0.588D+00 0.125D+01
 Gap=     0.150 Goal=   None    Shift=    0.000
 RMSDP=1.77D-04 MaxDP=5.14D-03 DE=-1.36D-04 OVMax= 1.69D-02

 Cycle  22  Pass 0  IDiag  1:
 RMSU=  1.77D-04    CP:  1.00D+00
 E= -954.567632232460     Delta-E=       -0.000108925123 Rises=F Damp=F
 DIIS: error= 1.48D-04 at cycle  22 NSaved=  20.
 NSaved=20 IEnMin=20 EnMin= -954.567632232460     IErMin=20 ErrMin= 1.48D-04
 ErrMax= 1.48D-04  0.00D+00 EMaxC= 1.00D-01 BMatC= 2.23D-06 BMatP= 7.40D-06
 IDIUse=3 WtCom= 9.99D-01 WtEn= 1.48D-03
 Coeff-Com:  0.181D-03-0.472D-03-0.377D-03-0.224D-02 0.809D-02 0.994D-02
 Coeff-Com:  0.215D-02-0.234D-01 0.449D-02-0.286D-01 0.175D+00-0.941D-01
 Coeff-Com: -0.131D+00-0.259D+00 0.583D+00 0.310D+00-0.913D+00-0.395D+00
 Coeff-Com:  0.489D+00 0.126D+01
 Coeff-En:   0.000D+00 0.000D+00 0.000D+00 0.000D+00 0.000D+00 0.000D+00
 Coeff-En:   0.000D+00 0.000D+00 0.000D+00 0.000D+00 0.000D+00 0.000D+00
 Coeff-En:   0.000D+00 0.000D+00 0.000D+00 0.000D+00 0.000D+00 0.000D+00
 Coeff-En:   0.000D+00 0.100D+01
 Coeff:      0.180D-03-0.471D-03-0.376D-03-0.224D-02 0.808D-02 0.993D-02
 Coeff:      0.215D-02-0.234D-01 0.448D-02-0.286D-01 0.175D+00-0.939D-01
 Coeff:     -0.131D+00-0.258D+00 0.582D+00 0.309D+00-0.911D+00-0.394D+00
 Coeff:      0.489D+00 0.126D+01
 Gap=     0.150 Goal=   None    Shift=    0.000
 RMSDP=1.19D-04 MaxDP=3.24D-03 DE=-1.09D-04 OVMax= 1.06D-02

 Cycle  23  Pass 0  IDiag  1:
 RMSU=  5.60D-05    CP:  1.00D+00  1.59D+00
 E= -954.567686991428     Delta-E=       -0.000054758967 Rises=F Damp=F
 DIIS: error= 1.13D-04 at cycle  23 NSaved=  20.
 NSaved=20 IEnMin=20 EnMin= -954.567686991428     IErMin=20 ErrMin= 1.13D-04
 ErrMax= 1.13D-04  0.00D+00 EMaxC= 1.00D-01 BMatC= 1.28D-06 BMatP= 2.23D-06
 IDIUse=3 WtCom= 9.99D-01 WtEn= 1.13D-03
 Coeff-Com:  0.180D-03-0.325D-03-0.220D-02 0.297D-02 0.434D-02-0.136D-01
 Coeff-Com: -0.823D-02 0.142D-01 0.234D-01 0.884D-01-0.751D-01-0.136D+00
 Coeff-Com: -0.546D-01 0.192D+00 0.144D+00-0.261D+00-0.230D+00 0.201D+00
 Coeff-Com:  0.427D+00 0.683D+00
 Coeff-En:   0.000D+00 0.000D+00 0.000D+00 0.000D+00 0.000D+00 0.000D+00
 Coeff-En:   0.000D+00 0.000D+00 0.000D+00 0.000D+00 0.000D+00 0.000D+00
 Coeff-En:   0.000D+00 0.000D+00 0.000D+00 0.000D+00 0.000D+00 0.000D+00
 Coeff-En:   0.000D+00 0.100D+01
 Coeff:      0.179D-03-0.325D-03-0.220D-02 0.297D-02 0.433D-02-0.136D-01
 Coeff:     -0.822D-02 0.142D-01 0.234D-01 0.883D-01-0.750D-01-0.136D+00
 Coeff:     -0.545D-01 0.192D+00 0.144D+00-0.261D+00-0.229D+00 0.201D+00
 Coeff:      0.427D+00 0.683D+00
 Gap=     0.150 Goal=   None    Shift=    0.000
 RMSDP=3.54D-05 MaxDP=9.47D-04 DE=-5.48D-05 OVMax= 3.13D-03

 Cycle  24  Pass 0  IDiag  1:
 RMSU=  1.26D-05    CP:  1.00D+00  1.78D+00  1.02D+00
 E= -954.567699071609     Delta-E=       -0.000012080181 Rises=F Damp=F
 DIIS: error= 9.86D-05 at cycle  24 NSaved=  20.
 NSaved=20 IEnMin=20 EnMin= -954.567699071609     IErMin=20 ErrMin= 9.86D-05
 ErrMax= 9.86D-05  0.00D+00 EMaxC= 1.00D-01 BMatC= 6.21D-07 BMatP= 1.28D-06
 IDIUse=1 WtCom= 1.00D+00 WtEn= 0.00D+00
 Coeff-Com: -0.162D-03-0.473D-03-0.168D-02 0.167D-02-0.942D-02 0.353D-02
 Coeff-Com:  0.597D-02 0.157D-01-0.608D-03-0.352D-02-0.462D-01 0.117D+00
 Coeff-Com: -0.206D+00-0.163D-01 0.226D+00 0.145D-01-0.209D-01-0.361D+00
 Coeff-Com:  0.229D+00 0.105D+01
 Coeff:     -0.162D-03-0.473D-03-0.168D-02 0.167D-02-0.942D-02 0.353D-02
 Coeff:      0.597D-02 0.157D-01-0.608D-03-0.352D-02-0.462D-01 0.117D+00
 Coeff:     -0.206D+00-0.163D-01 0.226D+00 0.145D-01-0.209D-01-0.361D+00
 Coeff:      0.229D+00 0.105D+01
 Gap=     0.150 Goal=   None    Shift=    0.000
 RMSDP=4.41D-05 MaxDP=1.20D-03 DE=-1.21D-05 OVMax= 4.18D-03

 Cycle  25  Pass 0  IDiag  1:
 RMSU=  9.71D-06    CP:  1.00D+00  2.00D+00  1.22D+00  2.09D+00
 E= -954.567712776910     Delta-E=       -0.000013705302 Rises=F Damp=F
 DIIS: error= 8.28D-05 at cycle  25 NSaved=  20.
 NSaved=20 IEnMin=20 EnMin= -954.567712776910     IErMin=20 ErrMin= 8.28D-05
 ErrMax= 8.28D-05  0.00D+00 EMaxC= 1.00D-01 BMatC= 4.87D-07 BMatP= 6.21D-07
 IDIUse=1 WtCom= 1.00D+00 WtEn= 0.00D+00
 Coeff-Com: -0.169D-03-0.485D-02 0.260D-02 0.122D-01 0.169D-02-0.257D-01
 Coeff-Com: -0.416D-01 0.268D-04 0.763D-01 0.609D-01-0.220D-02-0.223D+00
 Coeff-Com:  0.552D-01 0.145D+00 0.180D+00-0.164D+00-0.506D+00-0.280D+00
 Coeff-Com:  0.410D+00 0.130D+01
 Coeff:     -0.169D-03-0.485D-02 0.260D-02 0.122D-01 0.169D-02-0.257D-01
 Coeff:     -0.416D-01 0.268D-04 0.763D-01 0.609D-01-0.220D-02-0.223D+00
 Coeff:      0.552D-01 0.145D+00 0.180D+00-0.164D+00-0.506D+00-0.280D+00
 Coeff:      0.410D+00 0.130D+01
 Gap=     0.150 Goal=   None    Shift=    0.000
 RMSDP=6.36D-05 MaxDP=1.66D-03 DE=-1.37D-05 OVMax= 6.39D-03

 Cycle  26  Pass 0  IDiag  1:
 RMSU=  1.42D-05    CP:  1.00D+00  2.30D+00  1.60D+00  3.00D+00  2.97D+00
 E= -954.567729490282     Delta-E=       -0.000016713372 Rises=F Damp=F
 DIIS: error= 5.82D-05 at cycle  26 NSaved=  20.
 NSaved=20 IEnMin=20 EnMin= -954.567729490282     IErMin=20 ErrMin= 5.82D-05
 ErrMax= 5.82D-05  0.00D+00 EMaxC= 1.00D-01 BMatC= 3.10D-07 BMatP= 4.87D-07
 IDIUse=1 WtCom= 1.00D+00 WtEn= 0.00D+00
 Coeff-Com: -0.230D-02 0.209D-02 0.133D-01-0.630D-02-0.285D-01-0.359D-01
 Coeff-Com:  0.129D-01 0.636D-01 0.738D-01-0.106D+00-0.233D-01 0.642D-01
 Coeff-Com: -0.422D-01 0.144D+00-0.131D+00-0.182D+00-0.112D+00-0.253D+00
 Coeff-Com:  0.406D+00 0.114D+01
 Coeff:     -0.230D-02 0.209D-02 0.133D-01-0.630D-02-0.285D-01-0.359D-01
 Coeff:      0.129D-01 0.636D-01 0.738D-01-0.106D+00-0.233D-01 0.642D-01
 Coeff:     -0.422D-01 0.144D+00-0.131D+00-0.182D+00-0.112D+00-0.253D+00
 Coeff:      0.406D+00 0.114D+01
 Gap=     0.150 Goal=   None    Shift=    0.000
 RMSDP=5.12D-05 MaxDP=1.24D-03 DE=-1.67D-05 OVMax= 5.33D-03

 Cycle  27  Pass 0  IDiag  1:
 RMSU=  2.30D-05    CP:  1.00D+00  2.50D+00  1.99D+00  3.00D+00  3.00D+00
                    CP:  2.35D+00
 E= -954.567739477869     Delta-E=       -0.000009987587 Rises=F Damp=F
 DIIS: error= 3.92D-05 at cycle  27 NSaved=  20.
 NSaved=20 IEnMin=20 EnMin= -954.567739477869     IErMin=20 ErrMin= 3.92D-05
 ErrMax= 3.92D-05  0.00D+00 EMaxC= 1.00D-01 BMatC= 1.60D-07 BMatP= 3.10D-07
 IDIUse=1 WtCom= 1.00D+00 WtEn= 0.00D+00
 Coeff-Com: -0.188D-02-0.530D-02 0.177D-04 0.112D-01 0.302D-01-0.411D-01
 Coeff-Com: -0.356D-01 0.600D-02 0.496D-01 0.239D-01-0.964D-01 0.291D-01
 Coeff-Com:  0.424D-01-0.115D-01-0.375D-01 0.298D+00 0.671D-01-0.963D+00
 Coeff-Com:  0.295D+00 0.134D+01
 Coeff:     -0.188D-02-0.530D-02 0.177D-04 0.112D-01 0.302D-01-0.411D-01
 Coeff:     -0.356D-01 0.600D-02 0.496D-01 0.239D-01-0.964D-01 0.291D-01
 Coeff:      0.424D-01-0.115D-01-0.375D-01 0.298D+00 0.671D-01-0.963D+00
 Coeff:      0.295D+00 0.134D+01
 Gap=     0.150 Goal=   None    Shift=    0.000
 RMSDP=5.71D-05 MaxDP=1.49D-03 DE=-9.99D-06 OVMax= 5.88D-03

 Cycle  28  Pass 0  IDiag  1:
 RMSU=  1.28D-05    CP:  1.00D+00  2.77D+00  2.17D+00  3.00D+00  3.00D+00
                    CP:  3.00D+00  1.85D+00
 E= -954.567745560622     Delta-E=       -0.000006082753 Rises=F Damp=F
 DIIS: error= 2.51D-05 at cycle  28 NSaved=  20.
 NSaved=20 IEnMin=20 EnMin= -954.567745560622     IErMin=20 ErrMin= 2.51D-05
 ErrMax= 2.51D-05  0.00D+00 EMaxC= 1.00D-01 BMatC= 1.63D-07 BMatP= 1.60D-07
 IDIUse=1 WtCom= 1.00D+00 WtEn= 0.00D+00
 Coeff-Com: -0.279D-02 0.430D-02 0.969D-02 0.161D-01-0.141D-01-0.207D-01
 Coeff-Com: -0.180D-01 0.375D-01-0.472D-01-0.167D-01 0.888D-01 0.410D-02
 Coeff-Com: -0.468D-01 0.259D-01 0.318D+00 0.140D+00-0.791D+00-0.357D+00
 Coeff-Com:  0.763D+00 0.906D+00
 Coeff:     -0.279D-02 0.430D-02 0.969D-02 0.161D-01-0.141D-01-0.207D-01
 Coeff:     -0.180D-01 0.375D-01-0.472D-01-0.167D-01 0.888D-01 0.410D-02
 Coeff:     -0.468D-01 0.259D-01 0.318D+00 0.140D+00-0.791D+00-0.357D+00
 Coeff:      0.763D+00 0.906D+00
 Gap=     0.150 Goal=   None    Shift=    0.000
 RMSDP=2.50D-05 MaxDP=4.90D-04 DE=-6.08D-06 OVMax= 2.62D-03

 Cycle  29  Pass 0  IDiag  1:
 RMSU=  7.07D-06    CP:  1.00D+00  2.82D+00  2.45D+00  3.00D+00  3.00D+00
                    CP:  3.00D+00  2.41D+00  1.73D+00
 E= -954.567748035190     Delta-E=       -0.000002474568 Rises=F Damp=F
 DIIS: error= 1.85D-05 at cycle  29 NSaved=  20.
 NSaved=20 IEnMin=20 EnMin= -954.567748035190     IErMin=20 ErrMin= 1.85D-05
 ErrMax= 1.85D-05  0.00D+00 EMaxC= 1.00D-01 BMatC= 4.61D-08 BMatP= 1.60D-07
 IDIUse=1 WtCom= 1.00D+00 WtEn= 0.00D+00
 Coeff-Com:  0.452D-02-0.141D-02-0.484D-02 0.467D-02-0.205D-02-0.445D-02
 Coeff-Com:  0.282D-01-0.578D-01 0.292D-01 0.158D-01 0.744D-02 0.126D-01
 Coeff-Com:  0.113D-01 0.130D-01 0.777D-01-0.115D+00-0.314D+00-0.104D+00
 Coeff-Com:  0.469D+00 0.930D+00
 Coeff:      0.452D-02-0.141D-02-0.484D-02 0.467D-02-0.205D-02-0.445D-02
 Coeff:      0.282D-01-0.578D-01 0.292D-01 0.158D-01 0.744D-02 0.126D-01
 Coeff:      0.113D-01 0.130D-01 0.777D-01-0.115D+00-0.314D+00-0.104D+00
 Coeff:      0.469D+00 0.930D+00
 Gap=     0.150 Goal=   None    Shift=    0.000
 RMSDP=2.03D-05 MaxDP=3.90D-04 DE=-2.47D-06 OVMax= 2.37D-03

 Cycle  30  Pass 0  IDiag  1:
 RMSU=  2.99D-06    CP:  1.00D+00  2.87D+00  2.60D+00  3.00D+00  3.00D+00
                    CP:  3.00D+00  2.91D+00  2.53D+00  1.82D+00
 E= -954.567749397452     Delta-E=       -0.000001362262 Rises=F Damp=F
 DIIS: error= 1.43D-05 at cycle  30 NSaved=  20.
 NSaved=20 IEnMin=20 EnMin= -954.567749397452     IErMin=20 ErrMin= 1.43D-05
 ErrMax= 1.43D-05  0.00D+00 EMaxC= 1.00D-01 BMatC= 3.78D-08 BMatP= 4.61D-08
 IDIUse=1 WtCom= 1.00D+00 WtEn= 0.00D+00
 Coeff-Com: -0.744D-02-0.229D-02 0.113D-01 0.676D-02 0.503D-02-0.629D-04
 Coeff-Com: -0.458D-01 0.369D-01-0.632D-02 0.360D-01 0.261D-01-0.984D-01
 Coeff-Com: -0.207D+00 0.510D-01 0.535D+00-0.855D-01-0.629D+00-0.574D-01
 Coeff-Com:  0.532D+00 0.899D+00
 Coeff:     -0.744D-02-0.229D-02 0.113D-01 0.676D-02 0.503D-02-0.629D-04
 Coeff:     -0.458D-01 0.369D-01-0.632D-02 0.360D-01 0.261D-01-0.984D-01
 Coeff:     -0.207D+00 0.510D-01 0.535D+00-0.855D-01-0.629D+00-0.574D-01
 Coeff:      0.532D+00 0.899D+00
 Gap=     0.150 Goal=   None    Shift=    0.000
 RMSDP=8.86D-06 MaxDP=1.81D-04 DE=-1.36D-06 OVMax= 6.46D-04

 Initial convergence to 1.0D-05 achieved.  Increase integral accuracy.
 Cycle  31  Pass 1  IDiag  1:
 E= -954.567766730572     Delta-E=       -0.000017333121 Rises=F Damp=F
 DIIS: error= 1.36D-05 at cycle   1 NSaved=   1.
 NSaved= 1 IEnMin= 1 EnMin= -954.567766730572     IErMin= 1 ErrMin= 1.36D-05
 ErrMax= 1.36D-05  0.00D+00 EMaxC= 1.00D-01 BMatC= 9.67D-08 BMatP= 9.67D-08
 IDIUse=1 WtCom= 1.00D+00 WtEn= 0.00D+00
 Coeff-Com:  0.100D+01
 Coeff:      0.100D+01
 Gap=     0.150 Goal=   None    Shift=    0.000
 RMSDP=8.86D-06 MaxDP=1.81D-04 DE=-1.73D-05 OVMax= 2.77D-04

 Cycle  32  Pass 1  IDiag  1:
 RMSU=  1.07D-05    CP:  1.00D+00
 E= -954.567766922657     Delta-E=       -0.000000192084 Rises=F Damp=F
 DIIS: error= 1.08D-05 at cycle   2 NSaved=   2.
 NSaved= 2 IEnMin= 2 EnMin= -954.567766922657     IErMin= 2 ErrMin= 1.08D-05
 ErrMax= 1.08D-05  0.00D+00 EMaxC= 1.00D-01 BMatC= 3.40D-08 BMatP= 9.67D-08
 IDIUse=1 WtCom= 1.00D+00 WtEn= 0.00D+00
 Coeff-Com:  0.271D+00 0.729D+00
 Coeff:      0.271D+00 0.729D+00
 Gap=     0.150 Goal=   None    Shift=    0.000
 RMSDP=2.40D-06 MaxDP=5.64D-05 DE=-1.92D-07 OVMax= 1.80D-04

 Cycle  33  Pass 1  IDiag  1:
 RMSU=  2.30D-06    CP:  1.00D+00  1.06D+00
 E= -954.567766974643     Delta-E=       -0.000000051986 Rises=F Damp=F
 DIIS: error= 1.14D-05 at cycle   3 NSaved=   3.
 NSaved= 3 IEnMin= 3 EnMin= -954.567766974643     IErMin= 2 ErrMin= 1.08D-05
 ErrMax= 1.14D-05  0.00D+00 EMaxC= 1.00D-01 BMatC= 4.41D-08 BMatP= 3.40D-08
 IDIUse=1 WtCom= 1.00D+00 WtEn= 0.00D+00
 Coeff-Com: -0.488D-01 0.554D+00 0.495D+00
 Coeff:     -0.488D-01 0.554D+00 0.495D+00
 Gap=     0.150 Goal=   None    Shift=    0.000
 RMSDP=1.72D-06 MaxDP=3.86D-05 DE=-5.20D-08 OVMax= 1.68D-04

 Cycle  34  Pass 1  IDiag  1:
 RMSU=  1.58D-06    CP:  1.00D+00  1.13D+00  1.02D+00
 E= -954.567767053098     Delta-E=       -0.000000078456 Rises=F Damp=F
 DIIS: error= 8.10D-06 at cycle   4 NSaved=   4.
 NSaved= 4 IEnMin= 4 EnMin= -954.567767053098     IErMin= 4 ErrMin= 8.10D-06
 ErrMax= 8.10D-06  0.00D+00 EMaxC= 1.00D-01 BMatC= 7.34D-09 BMatP= 3.40D-08
 IDIUse=1 WtCom= 1.00D+00 WtEn= 0.00D+00
 Coeff-Com: -0.593D-01 0.313D+00 0.328D+00 0.418D+00
 Coeff:     -0.593D-01 0.313D+00 0.328D+00 0.418D+00
 Gap=     0.150 Goal=   None    Shift=    0.000
 RMSDP=8.91D-07 MaxDP=1.78D-05 DE=-7.85D-08 OVMax= 1.03D-04

 Cycle  35  Pass 1  IDiag  1:
 RMSU=  4.66D-07    CP:  1.00D+00  1.15D+00  1.24D+00  1.32D+00
 E= -954.567767084121     Delta-E=       -0.000000031023 Rises=F Damp=F
 DIIS: error= 7.98D-06 at cycle   5 NSaved=   5.
 NSaved= 5 IEnMin= 5 EnMin= -954.567767084121     IErMin= 5 ErrMin= 7.98D-06
 ErrMax= 7.98D-06  0.00D+00 EMaxC= 1.00D-01 BMatC= 2.91D-09 BMatP= 7.34D-09
 IDIUse=1 WtCom= 1.00D+00 WtEn= 0.00D+00
 Coeff-Com:  0.545D-03-0.174D+00-0.152D+00-0.131D-01 0.134D+01
 Coeff:      0.545D-03-0.174D+00-0.152D+00-0.131D-01 0.134D+01
 Gap=     0.150 Goal=   None    Shift=    0.000
 RMSDP=2.52D-06 MaxDP=5.32D-05 DE=-3.10D-08 OVMax= 3.16D-04

 Cycle  36  Pass 1  IDiag  1:
 RMSU=  4.35D-07    CP:  1.00D+00  1.20D+00  1.87D+00  2.51D+00  2.14D+00
 E= -954.567767157649     Delta-E=       -0.000000073528 Rises=F Damp=F
 DIIS: error= 6.57D-06 at cycle   6 NSaved=   6.
 NSaved= 6 IEnMin= 6 EnMin= -954.567767157649     IErMin= 6 ErrMin= 6.57D-06
 ErrMax= 6.57D-06  0.00D+00 EMaxC= 1.00D-01 BMatC= 3.06D-09 BMatP= 2.91D-09
 IDIUse=1 WtCom= 1.00D+00 WtEn= 0.00D+00
 Coeff-Com:  0.516D-01-0.434D+00-0.436D+00-0.556D+00 0.145D+01 0.924D+00
 Coeff:      0.516D-01-0.434D+00-0.436D+00-0.556D+00 0.145D+01 0.924D+00
 Gap=     0.150 Goal=   None    Shift=    0.000
 RMSDP=3.64D-06 MaxDP=7.67D-05 DE=-7.35D-08 OVMax= 4.59D-04

 Cycle  37  Pass 1  IDiag  1:
 RMSU=  1.99D-06    CP:  1.00D+00  1.27D+00  2.79D+00  3.00D+00  3.00D+00
                    CP:  1.90D+00
 E= -954.567767243492     Delta-E=       -0.000000085843 Rises=F Damp=F
 DIIS: error= 5.08D-06 at cycle   7 NSaved=   7.
 NSaved= 7 IEnMin= 7 EnMin= -954.567767243492     IErMin= 7 ErrMin= 5.08D-06
 ErrMax= 5.08D-06  0.00D+00 EMaxC= 1.00D-01 BMatC= 2.06D-09 BMatP= 2.91D-09
 IDIUse=1 WtCom= 1.00D+00 WtEn= 0.00D+00
 Coeff-Com:  0.430D-01-0.245D+00-0.259D+00-0.580D+00 0.372D+00 0.851D+00
 Coeff-Com:  0.818D+00
 Coeff:      0.430D-01-0.245D+00-0.259D+00-0.580D+00 0.372D+00 0.851D+00
 Coeff:      0.818D+00
 Gap=     0.150 Goal=   None    Shift=    0.000
 RMSDP=3.47D-06 MaxDP=7.33D-05 DE=-8.58D-08 OVMax= 4.43D-04

 Cycle  38  Pass 1  IDiag  1:
 RMSU=  1.58D-06    CP:  1.00D+00  1.33D+00  3.00D+00  3.00D+00  3.00D+00
                    CP:  3.00D+00  2.33D+00
 E= -954.567767303485     Delta-E=       -0.000000059992 Rises=F Damp=F
 DIIS: error= 3.62D-06 at cycle   8 NSaved=   8.
 NSaved= 8 IEnMin= 8 EnMin= -954.567767303485     IErMin= 8 ErrMin= 3.62D-06
 ErrMax= 3.62D-06  0.00D+00 EMaxC= 1.00D-01 BMatC= 9.97D-10 BMatP= 2.06D-09
 IDIUse=1 WtCom= 1.00D+00 WtEn= 0.00D+00
 Coeff-Com: -0.108D-02 0.118D+00 0.112D+00-0.167D+00-0.717D+00 0.107D+00
 Coeff-Com:  0.650D+00 0.898D+00
 Coeff:     -0.108D-02 0.118D+00 0.112D+00-0.167D+00-0.717D+00 0.107D+00
 Coeff:      0.650D+00 0.898D+00
 Gap=     0.150 Goal=   None    Shift=    0.000
 RMSDP=3.22D-06 MaxDP=6.72D-05 DE=-6.00D-08 OVMax= 4.16D-04

 Cycle  39  Pass 1  IDiag  1:
 RMSU=  1.34D-06    CP:  1.00D+00  1.39D+00  3.00D+00  3.00D+00  3.00D+00
                    CP:  3.00D+00  3.00D+00  2.16D+00
 E= -954.567767341368     Delta-E=       -0.000000037884 Rises=F Damp=F
 DIIS: error= 2.88D-06 at cycle   9 NSaved=   9.
 NSaved= 9 IEnMin= 9 EnMin= -954.567767341368     IErMin= 9 ErrMin= 2.88D-06
 ErrMax= 2.88D-06  0.00D+00 EMaxC= 1.00D-01 BMatC= 5.49D-10 BMatP= 9.97D-10
 IDIUse=1 WtCom= 1.00D+00 WtEn= 0.00D+00
 Coeff-Com: -0.235D-01 0.198D+00 0.215D+00 0.159D+00-0.606D+00-0.352D+00
 Coeff-Com: -0.452D-01 0.588D+00 0.867D+00
 Coeff:     -0.235D-01 0.198D+00 0.215D+00 0.159D+00-0.606D+00-0.352D+00
 Coeff:     -0.452D-01 0.588D+00 0.867D+00
 Gap=     0.150 Goal=   None    Shift=    0.000
 RMSDP=1.96D-06 MaxDP=3.91D-05 DE=-3.79D-08 OVMax= 2.51D-04

 Cycle  40  Pass 1  IDiag  1:
 RMSU=  4.56D-07    CP:  1.00D+00  1.42D+00  3.00D+00  3.00D+00  3.00D+00
                    CP:  3.00D+00  3.00D+00  2.83D+00  2.15D+00
 E= -954.567767357825     Delta-E=       -0.000000016456 Rises=F Damp=F
 DIIS: error= 2.46D-06 at cycle  10 NSaved=  10.
 NSaved=10 IEnMin=10 EnMin= -954.567767357825     IErMin=10 ErrMin= 2.46D-06
 ErrMax= 2.46D-06  0.00D+00 EMaxC= 1.00D-01 BMatC= 2.86D-10 BMatP= 5.49D-10
 IDIUse=1 WtCom= 1.00D+00 WtEn= 0.00D+00
 Coeff-Com: -0.728D-02-0.326D-02 0.295D-01 0.123D+00 0.196D+00-0.161D+00
 Coeff-Com: -0.408D+00-0.235D+00 0.220D+00 0.125D+01
 Coeff:     -0.728D-02-0.326D-02 0.295D-01 0.123D+00 0.196D+00-0.161D+00
 Coeff:     -0.408D+00-0.235D+00 0.220D+00 0.125D+01
 Gap=     0.150 Goal=   None    Shift=    0.000
 RMSDP=1.51D-06 MaxDP=3.20D-05 DE=-1.65D-08 OVMax= 1.86D-04

 Cycle  41  Pass 1  IDiag  1:
 RMSU=  5.72D-07    CP:  1.00D+00  1.45D+00  3.00D+00  3.00D+00  3.00D+00
                    CP:  3.00D+00  3.00D+00  3.00D+00  3.00D+00  1.81D+00
 E= -954.567767368110     Delta-E=       -0.000000010286 Rises=F Damp=F
 DIIS: error= 1.82D-06 at cycle  11 NSaved=  11.
 NSaved=11 IEnMin=11 EnMin= -954.567767368110     IErMin=11 ErrMin= 1.82D-06
 ErrMax= 1.82D-06  0.00D+00 EMaxC= 1.00D-01 BMatC= 2.21D-10 BMatP= 2.86D-10
 IDIUse=1 WtCom= 1.00D+00 WtEn= 0.00D+00
 Coeff-Com:  0.995D-02-0.144D+00-0.113D+00-0.228D-01 0.587D+00 0.119D+00
 Coeff-Com: -0.341D+00-0.549D+00-0.440D+00 0.103D+01 0.864D+00
 Coeff:      0.995D-02-0.144D+00-0.113D+00-0.228D-01 0.587D+00 0.119D+00
 Coeff:     -0.341D+00-0.549D+00-0.440D+00 0.103D+01 0.864D+00
 Gap=     0.150 Goal=   None    Shift=    0.000
 RMSDP=1.30D-06 MaxDP=2.77D-05 DE=-1.03D-08 OVMax= 1.52D-04

 Cycle  42  Pass 1  IDiag  1:
 RMSU=  9.41D-07    CP:  1.00D+00  1.46D+00  3.00D+00  3.00D+00  3.00D+00
                    CP:  3.00D+00  3.00D+00  3.00D+00  3.00D+00  2.58D+00
                    CP:  2.42D+00
 E= -954.567767374838     Delta-E=       -0.000000006727 Rises=F Damp=F
 DIIS: error= 1.39D-06 at cycle  12 NSaved=  12.
 NSaved=12 IEnMin=12 EnMin= -954.567767374838     IErMin=12 ErrMin= 1.39D-06
 ErrMax= 1.39D-06  0.00D+00 EMaxC= 1.00D-01 BMatC= 1.42D-10 BMatP= 2.21D-10
 IDIUse=1 WtCom= 1.00D+00 WtEn= 0.00D+00
 Coeff-Com:  0.901D-02-0.864D-01-0.684D-01-0.847D-01 0.251D+00 0.143D+00
 Coeff-Com: -0.176D-01-0.137D+00-0.384D+00-0.130D+00 0.620D+00 0.885D+00
 Coeff:      0.901D-02-0.864D-01-0.684D-01-0.847D-01 0.251D+00 0.143D+00
 Coeff:     -0.176D-01-0.137D+00-0.384D+00-0.130D+00 0.620D+00 0.885D+00
 Gap=     0.150 Goal=   None    Shift=    0.000
 RMSDP=8.55D-07 MaxDP=2.12D-05 DE=-6.73D-09 OVMax= 9.24D-05

 Cycle  43  Pass 1  IDiag  1:
 RMSU=  2.69D-07    CP:  1.00D+00  1.47D+00  3.00D+00  3.00D+00  3.00D+00
                    CP:  3.00D+00  3.00D+00  3.00D+00  3.00D+00  3.00D+00
                    CP:  3.00D+00  1.62D+00
 E= -954.567767378351     Delta-E=       -0.000000003513 Rises=F Damp=F
 DIIS: error= 1.17D-06 at cycle  13 NSaved=  13.
 NSaved=13 IEnMin=13 EnMin= -954.567767378351     IErMin=13 ErrMin= 1.17D-06
 ErrMax= 1.17D-06  0.00D+00 EMaxC= 1.00D-01 BMatC= 7.28D-11 BMatP= 1.42D-10
 IDIUse=1 WtCom= 1.00D+00 WtEn= 0.00D+00
 Coeff-Com: -0.164D-02 0.417D-01 0.484D-01-0.305D-01-0.224D+00-0.182D-01
 Coeff-Com:  0.165D+00 0.307D+00 0.764D-01-0.767D+00-0.786D-01 0.296D+00
 Coeff-Com:  0.119D+01
 Coeff:     -0.164D-02 0.417D-01 0.484D-01-0.305D-01-0.224D+00-0.182D-01
 Coeff:      0.165D+00 0.307D+00 0.764D-01-0.767D+00-0.786D-01 0.296D+00
 Coeff:      0.119D+01
 Gap=     0.150 Goal=   None    Shift=    0.000
 RMSDP=7.87D-07 MaxDP=2.02D-05 DE=-3.51D-09 OVMax= 7.95D-05

 Cycle  44  Pass 1  IDiag  1:
 RMSU=  1.93D-07    CP:  1.00D+00  1.48D+00  3.00D+00  3.00D+00  3.00D+00
                    CP:  3.00D+00  3.00D+00  3.00D+00  3.00D+00  3.00D+00
                    CP:  3.00D+00  2.16D+00  3.00D+00
 E= -954.567767380916     Delta-E=       -0.000000002565 Rises=F Damp=F
 DIIS: error= 8.77D-07 at cycle  14 NSaved=  14.
 NSaved=14 IEnMin=14 EnMin= -954.567767380916     IErMin=14 ErrMin= 8.77D-07
 ErrMax= 8.77D-07  0.00D+00 EMaxC= 1.00D-01 BMatC= 5.58D-11 BMatP= 7.28D-11
 IDIUse=1 WtCom= 1.00D+00 WtEn= 0.00D+00
 Coeff-Com: -0.766D-02 0.840D-01 0.873D-01 0.338D-01-0.317D+00-0.115D+00
 Coeff-Com:  0.979D-01 0.352D+00 0.325D+00-0.511D+00-0.403D+00-0.499D+00
 Coeff-Com:  0.903D+00 0.971D+00
 Coeff:     -0.766D-02 0.840D-01 0.873D-01 0.338D-01-0.317D+00-0.115D+00
 Coeff:      0.979D-01 0.352D+00 0.325D+00-0.511D+00-0.403D+00-0.499D+00
 Coeff:      0.903D+00 0.971D+00
 Gap=     0.150 Goal=   None    Shift=    0.000
 RMSDP=6.46D-07 MaxDP=1.77D-05 DE=-2.56D-09 OVMax= 5.71D-05

 Cycle  45  Pass 1  IDiag  1:
 RMSU=  4.91D-07    CP:  1.00D+00  1.49D+00  3.00D+00  3.00D+00  3.00D+00
                    CP:  3.00D+00  3.00D+00  3.00D+00  3.00D+00  3.00D+00
                    CP:  3.00D+00  2.57D+00  3.00D+00  1.87D+00
 E= -954.567767382572     Delta-E=       -0.000000001656 Rises=F Damp=F
 DIIS: error= 7.38D-07 at cycle  15 NSaved=  15.
 NSaved=15 IEnMin=15 EnMin= -954.567767382572     IErMin=15 ErrMin= 7.38D-07
 ErrMax= 7.38D-07  0.00D+00 EMaxC= 1.00D-01 BMatC= 2.79D-11 BMatP= 5.58D-11
 IDIUse=1 WtCom= 1.00D+00 WtEn= 0.00D+00
 Coeff-Com: -0.182D-02 0.744D-02 0.139D-01 0.225D-01 0.129D-01-0.417D-01
 Coeff-Com: -0.886D-01 0.210D-01 0.883D-01 0.151D+00-0.483D-01-0.406D+00
 Coeff-Com: -0.201D+00 0.389D+00 0.108D+01
 Coeff:     -0.182D-02 0.744D-02 0.139D-01 0.225D-01 0.129D-01-0.417D-01
 Coeff:     -0.886D-01 0.210D-01 0.883D-01 0.151D+00-0.483D-01-0.406D+00
 Coeff:     -0.201D+00 0.389D+00 0.108D+01
 Gap=     0.150 Goal=   None    Shift=    0.000
 RMSDP=4.14D-07 MaxDP=1.18D-05 DE=-1.66D-09 OVMax= 3.77D-05

 Cycle  46  Pass 1  IDiag  1:
 RMSU=  1.01D-07    CP:  1.00D+00  1.49D+00  3.00D+00  3.00D+00  3.00D+00
                    CP:  3.00D+00  3.00D+00  3.00D+00  3.00D+00  3.00D+00
                    CP:  3.00D+00  2.80D+00  3.00D+00  2.45D+00  1.65D+00
 E= -954.567767383401     Delta-E=       -0.000000000829 Rises=F Damp=F
 DIIS: error= 4.81D-07 at cycle  16 NSaved=  16.
 NSaved=16 IEnMin=16 EnMin= -954.567767383401     IErMin=16 ErrMin= 4.81D-07
 ErrMax= 4.81D-07  0.00D+00 EMaxC= 1.00D-01 BMatC= 2.71D-11 BMatP= 2.79D-11
 IDIUse=1 WtCom= 1.00D+00 WtEn= 0.00D+00
 Coeff-Com:  0.497D-02-0.705D-01-0.615D-01-0.134D-01 0.314D+00 0.604D-01
 Coeff-Com: -0.212D+00-0.271D+00-0.200D+00 0.624D+00 0.340D+00-0.272D-01
 Coeff-Com: -0.101D+01-0.523D+00 0.116D+01 0.889D+00
 Coeff:      0.497D-02-0.705D-01-0.615D-01-0.134D-01 0.314D+00 0.604D-01
 Coeff:     -0.212D+00-0.271D+00-0.200D+00 0.624D+00 0.340D+00-0.272D-01
 Coeff:     -0.101D+01-0.523D+00 0.116D+01 0.889D+00
 Gap=     0.150 Goal=   None    Shift=    0.000
 RMSDP=4.74D-07 MaxDP=1.37D-05 DE=-8.29D-10 OVMax= 4.35D-05

 Cycle  47  Pass 1  IDiag  1:
 RMSU=  6.50D-08    CP:  1.00D+00  1.49D+00  3.00D+00  3.00D+00  3.00D+00
                    CP:  3.00D+00  3.00D+00  3.00D+00  3.00D+00  3.00D+00
                    CP:  3.00D+00  3.00D+00  3.00D+00  3.00D+00  2.39D+00
                    CP:  2.53D+00
 E= -954.567767384082     Delta-E=       -0.000000000681 Rises=F Damp=F
 DIIS: error= 3.44D-07 at cycle  17 NSaved=  17.
 NSaved=17 IEnMin=17 EnMin= -954.567767384082     IErMin=17 ErrMin= 3.44D-07
 ErrMax= 3.44D-07  0.00D+00 EMaxC= 1.00D-01 BMatC= 8.39D-12 BMatP= 2.71D-11
 IDIUse=1 WtCom= 1.00D+00 WtEn= 0.00D+00
 Coeff-Com:  0.203D-02-0.200D-01-0.156D-01-0.194D-01 0.636D-01 0.372D-01
 Coeff-Com: -0.248D-01-0.304D-01-0.882D-01 0.202D-01 0.802D-01 0.171D+00
 Coeff-Com:  0.789D-01-0.395D+00-0.300D+00-0.358D-01 0.148D+01
 Coeff:      0.203D-02-0.200D-01-0.156D-01-0.194D-01 0.636D-01 0.372D-01
 Coeff:     -0.248D-01-0.304D-01-0.882D-01 0.202D-01 0.802D-01 0.171D+00
 Coeff:      0.789D-01-0.395D+00-0.300D+00-0.358D-01 0.148D+01
 Gap=     0.150 Goal=   None    Shift=    0.000
 RMSDP=3.35D-07 MaxDP=9.63D-06 DE=-6.81D-10 OVMax= 3.07D-05

 Cycle  48  Pass 1  IDiag  1:
 RMSU=  1.52D-07    CP:  1.00D+00  1.49D+00  3.00D+00  3.00D+00  3.00D+00
                    CP:  3.00D+00  3.00D+00  3.00D+00  3.00D+00  3.00D+00
                    CP:  3.00D+00  3.00D+00  3.00D+00  3.00D+00  2.88D+00
                    CP:  3.00D+00  3.00D+00
 E= -954.567767384373     Delta-E=       -0.000000000291 Rises=F Damp=F
 DIIS: error= 2.06D-07 at cycle  18 NSaved=  18.
 NSaved=18 IEnMin=18 EnMin= -954.567767384373     IErMin=18 ErrMin= 2.06D-07
 ErrMax= 2.06D-07  0.00D+00 EMaxC= 1.00D-01 BMatC= 5.57D-12 BMatP= 8.39D-12
 IDIUse=1 WtCom= 1.00D+00 WtEn= 0.00D+00
 Coeff-Com: -0.539D-03 0.152D-01 0.154D-01-0.913D-02-0.881D-01 0.129D-02
 Coeff-Com:  0.692D-01 0.991D-01 0.182D-01-0.241D+00-0.960D-01 0.115D+00
 Coeff-Com:  0.554D+00-0.126D+00-0.709D+00-0.453D+00 0.118D+01 0.657D+00
 Coeff:     -0.539D-03 0.152D-01 0.154D-01-0.913D-02-0.881D-01 0.129D-02
 Coeff:      0.692D-01 0.991D-01 0.182D-01-0.241D+00-0.960D-01 0.115D+00
 Coeff:      0.554D+00-0.126D+00-0.709D+00-0.453D+00 0.118D+01 0.657D+00
 Gap=     0.150 Goal=   None    Shift=    0.000
 RMSDP=1.79D-07 MaxDP=4.97D-06 DE=-2.91D-10 OVMax= 1.59D-05

 Cycle  49  Pass 1  IDiag  1:
 RMSU=  1.03D-07    CP:  1.00D+00  1.49D+00  3.00D+00  3.00D+00  3.00D+00
                    CP:  3.00D+00  3.00D+00  3.00D+00  3.00D+00  3.00D+00
                    CP:  3.00D+00  3.00D+00  3.00D+00  3.00D+00  3.00D+00
                    CP:  3.00D+00  3.00D+00  1.67D+00
 E= -954.567767384459     Delta-E=       -0.000000000086 Rises=F Damp=F
 DIIS: error= 1.45D-07 at cycle  19 NSaved=  19.
 NSaved=19 IEnMin=19 EnMin= -954.567767384459     IErMin=19 ErrMin= 1.45D-07
 ErrMax= 1.45D-07  0.00D+00 EMaxC= 1.00D-01 BMatC= 1.99D-12 BMatP= 5.57D-12
 IDIUse=1 WtCom= 1.00D+00 WtEn= 0.00D+00
 Coeff-Com: -0.118D-02 0.174D-01 0.155D-01 0.395D-02-0.771D-01-0.191D-01
 Coeff-Com:  0.529D-01 0.718D-01 0.479D-01-0.143D+00-0.101D+00-0.167D-01
 Coeff-Com:  0.338D+00 0.488D-01-0.244D+00-0.269D+00 0.144D-01 0.441D+00
 Coeff-Com:  0.820D+00
 Coeff:     -0.118D-02 0.174D-01 0.155D-01 0.395D-02-0.771D-01-0.191D-01
 Coeff:      0.529D-01 0.718D-01 0.479D-01-0.143D+00-0.101D+00-0.167D-01
 Coeff:      0.338D+00 0.488D-01-0.244D+00-0.269D+00 0.144D-01 0.441D+00
 Coeff:      0.820D+00
 Gap=     0.150 Goal=   None    Shift=    0.000
 RMSDP=7.92D-08 MaxDP=1.87D-06 DE=-8.59D-11 OVMax= 6.06D-06

 Cycle  50  Pass 1  IDiag  1:
 RMSU=  3.17D-08    CP:  1.00D+00  1.49D+00  3.00D+00  3.00D+00  3.00D+00
                    CP:  3.00D+00  3.00D+00  3.00D+00  3.00D+00  3.00D+00
                    CP:  3.00D+00  3.00D+00  3.00D+00  3.00D+00  3.00D+00
                    CP:  3.00D+00  3.00D+00  1.96D+00  1.56D+00
 E= -954.567767384486     Delta-E=       -0.000000000027 Rises=F Damp=F
 DIIS: error= 8.89D-08 at cycle  20 NSaved=  20.
 NSaved=20 IEnMin=20 EnMin= -954.567767384486     IErMin=20 ErrMin= 8.89D-08
 ErrMax= 8.89D-08  0.00D+00 EMaxC= 1.00D-01 BMatC= 7.14D-13 BMatP= 1.99D-12
 IDIUse=1 WtCom= 1.00D+00 WtEn= 0.00D+00
 Coeff-Com: -0.237D-03 0.761D-03-0.584D-04 0.592D-02 0.726D-02-0.133D-01
 Coeff-Com: -0.322D-02-0.155D-01 0.911D-02 0.551D-01-0.165D-01-0.643D-01
 Coeff-Com: -0.734D-01 0.449D-01 0.250D+00 0.687D-01-0.565D+00-0.725D-01
 Coeff-Com:  0.381D+00 0.100D+01
 Coeff:     -0.237D-03 0.761D-03-0.584D-04 0.592D-02 0.726D-02-0.133D-01
 Coeff:     -0.322D-02-0.155D-01 0.911D-02 0.551D-01-0.165D-01-0.643D-01
 Coeff:     -0.734D-01 0.449D-01 0.250D+00 0.687D-01-0.565D+00-0.725D-01
 Coeff:      0.381D+00 0.100D+01
 Gap=     0.150 Goal=   None    Shift=    0.000
 RMSDP=7.08D-08 MaxDP=1.68D-06 DE=-2.73D-11 OVMax= 6.03D-06

 Cycle  51  Pass 1  IDiag  1:
 Restarting incremental Fock formation.
 E= -954.567767384500     Delta-E=       -0.000000000014 Rises=F Damp=F
 DIIS: error= 5.84D-08 at cycle  21 NSaved=  20.
 NSaved=20 IEnMin=20 EnMin= -954.567767384500     IErMin=20 ErrMin= 5.84D-08
 ErrMax= 5.84D-08  0.00D+00 EMaxC= 1.00D-01 BMatC= 3.34D-13 BMatP= 7.14D-13
 IDIUse=1 WtCom= 1.00D+00 WtEn= 0.00D+00
 Coeff-Com: -0.308D-02-0.260D-02 0.251D-02 0.208D-01-0.616D-02-0.117D-01
 Coeff-Com: -0.250D-01-0.594D-02 0.688D-01 0.834D-02-0.274D-01-0.116D+00
 Coeff-Com:  0.210D-02 0.201D+00 0.881D-01-0.279D+00-0.149D+00-0.571D-01
 Coeff-Com:  0.496D+00 0.796D+00
 Coeff:     -0.308D-02-0.260D-02 0.251D-02 0.208D-01-0.616D-02-0.117D-01
 Coeff:     -0.250D-01-0.594D-02 0.688D-01 0.834D-02-0.274D-01-0.116D+00
 Coeff:      0.210D-02 0.201D+00 0.881D-01-0.279D+00-0.149D+00-0.571D-01
 Coeff:      0.496D+00 0.796D+00
 Gap=     0.150 Goal=   None    Shift=    0.000
 RMSDP=2.64D-08 MaxDP=4.18D-07 DE=-1.36D-11 OVMax= 2.16D-06

 Cycle  52  Pass 1  IDiag  1:
 RMSU=  2.64D-08    CP:  1.00D+00
 E= -954.567767384506     Delta-E=       -0.000000000007 Rises=F Damp=F
 DIIS: error= 4.20D-08 at cycle  22 NSaved=  20.
 NSaved=20 IEnMin=20 EnMin= -954.567767384506     IErMin=20 ErrMin= 4.20D-08
 ErrMax= 4.20D-08  0.00D+00 EMaxC= 1.00D-01 BMatC= 1.61D-13 BMatP= 3.34D-13
 IDIUse=1 WtCom= 1.00D+00 WtEn= 0.00D+00
 Coeff-Com:  0.802D-03-0.121D-02-0.591D-03-0.574D-03 0.324D-02 0.193D-02
 Coeff-Com: -0.483D-02-0.583D-02-0.116D-02 0.220D-01 0.111D-01-0.204D-01
 Coeff-Com: -0.467D-01-0.272D-01 0.193D+00-0.364D-02-0.256D+00-0.307D+00
 Coeff-Com:  0.372D+00 0.107D+01
 Coeff:      0.802D-03-0.121D-02-0.591D-03-0.574D-03 0.324D-02 0.193D-02
 Coeff:     -0.483D-02-0.583D-02-0.116D-02 0.220D-01 0.111D-01-0.204D-01
 Coeff:     -0.467D-01-0.272D-01 0.193D+00-0.364D-02-0.256D+00-0.307D+00
 Coeff:      0.372D+00 0.107D+01
 Gap=     0.150 Goal=   None    Shift=    0.000
 RMSDP=2.04D-08 MaxDP=3.78D-07 DE=-6.82D-12 OVMax= 1.62D-06

 Cycle  53  Pass 1  IDiag  1:
 RMSU=  8.46D-09    CP:  1.00D+00  1.71D+00
 E= -954.567767384509     Delta-E=       -0.000000000003 Rises=F Damp=F
 DIIS: error= 2.76D-08 at cycle  23 NSaved=  20.
 NSaved=20 IEnMin=20 EnMin= -954.567767384509     IErMin=20 ErrMin= 2.76D-08
 ErrMax= 2.76D-08  0.00D+00 EMaxC= 1.00D-01 BMatC= 6.78D-14 BMatP= 1.61D-13
 IDIUse=1 WtCom= 1.00D+00 WtEn= 0.00D+00
 Coeff-Com: -0.128D-02-0.211D-02 0.103D-02 0.444D-02 0.404D-02-0.394D-02
 Coeff-Com: -0.110D-01-0.128D-02 0.167D-01 0.166D-01-0.796D-02-0.534D-01
 Coeff-Com: -0.301D-01 0.131D+00 0.464D-01-0.992D-01-0.264D+00-0.116D+00
 Coeff-Com:  0.447D+00 0.923D+00
 Coeff:     -0.128D-02-0.211D-02 0.103D-02 0.444D-02 0.404D-02-0.394D-02
 Coeff:     -0.110D-01-0.128D-02 0.167D-01 0.166D-01-0.796D-02-0.534D-01
 Coeff:     -0.301D-01 0.131D+00 0.464D-01-0.992D-01-0.264D+00-0.116D+00
 Coeff:      0.447D+00 0.923D+00
 Gap=     0.150 Goal=   None    Shift=    0.000
 RMSDP=1.66D-08 MaxDP=2.74D-07 DE=-2.73D-12 OVMax= 1.70D-06

 Cycle  54  Pass 1  IDiag  1:
 RMSU=  4.82D-09    CP:  1.00D+00  2.29D+00  1.42D+00
 E= -954.567767384505     Delta-E=        0.000000000004 Rises=F Damp=F
 DIIS: error= 1.91D-08 at cycle  24 NSaved=  20.
 NSaved=20 IEnMin=19 EnMin= -954.567767384509     IErMin=20 ErrMin= 1.91D-08
 ErrMax= 1.91D-08  0.00D+00 EMaxC= 1.00D-01 BMatC= 4.29D-14 BMatP= 6.78D-14
 IDIUse=1 WtCom= 1.00D+00 WtEn= 0.00D+00
 Coeff-Com: -0.109D-02 0.278D-03 0.141D-02 0.217D-02-0.309D-02-0.522D-02
 Coeff-Com: -0.122D-02 0.111D-01 0.136D-01 0.153D-03-0.426D-01-0.226D-01
 Coeff-Com:  0.825D-01 0.419D-01-0.235D-01-0.126D+00-0.175D+00-0.239D-01
 Coeff-Com:  0.575D+00 0.696D+00
 Coeff:     -0.109D-02 0.278D-03 0.141D-02 0.217D-02-0.309D-02-0.522D-02
 Coeff:     -0.122D-02 0.111D-01 0.136D-01 0.153D-03-0.426D-01-0.226D-01
 Coeff:      0.825D-01 0.419D-01-0.235D-01-0.126D+00-0.175D+00-0.239D-01
 Coeff:      0.575D+00 0.696D+00
 Gap=     0.150 Goal=   None    Shift=    0.000
 RMSDP=8.48D-09 MaxDP=2.32D-07 DE= 4.09D-12 OVMax= 7.41D-07

 SCF Done:  E(RwB97XD) =  -954.567767385     A.U. after   54 cycles
            NFock= 54  Conv=0.85D-08     -V/T= 2.0050
 KE= 9.498124499936D+02 PE=-4.711167767788D+03 EE= 1.527456591924D+03
 Leave Link  502 at Wed Jan  5 16:39:25 2022, MaxMem=   402653184 cpu:            2897.7 elap:             513.1
 (Enter /work/01114/jfonner/frontera/gaussian/16rC.01/g16/l601.exe)
 Copying SCF densities to generalized density rwf, IOpCl= 0 IROHF=0.

 **********************************************************************

            Population analysis using the SCF Density.

 **********************************************************************

 Orbital symmetries:
       Occupied  (A) (A) (A) (A) (A) (A) (A) (A) (A) (A) (A) (A)
                 (A) (A) (A) (A) (A) (A) (A) (A) (A) (A) (A) (A)
                 (A) (A) (A) (A) (A) (A) (A) (A) (A) (A) (A) (A)
                 (A) (A) (A) (A) (A) (A) (A) (A) (A) (A) (A) (A)
                 (A) (A) (A) (A) (A) (A) (A) (A) (A) (A) (A) (A)
                 (A) (A) (A) (A) (A)
       Virtual   (A) (A) (A) (A) (A) (A) (A) (A) (A) (A) (A) (A)
                 (A) (A) (A) (A) (A) (A) (A) (A) (A) (A) (A) (A)
                 (A) (A) (A) (A) (A) (A) (A) (A) (A) (A) (A) (A)
                 (A) (A) (A) (A) (A) (A) (A) (A) (A) (A) (A) (A)
                 (A) (A) (A) (A) (A) (A) (A) (A) (A) (A) (A) (A)
                 (A) (A) (A) (A) (A) (A) (A) (A) (A) (A) (A) (A)
                 (A) (A) (A) (A) (A) (A) (A) (A) (A) (A) (A) (A)
                 (A) (A) (A) (A) (A) (A) (A) (A) (A) (A) (A) (A)
                 (A) (A) (A) (A) (A) (A) (A) (A) (A) (A) (A) (A)
                 (A) (A) (A) (A) (A) (A) (A) (A) (A) (A) (A) (A)
                 (A)
 The electronic state is 1-A.
 Alpha  occ. eigenvalues --  -19.91611 -19.90149 -19.85877 -15.17340 -15.16321
 Alpha  occ. eigenvalues --  -15.14127 -15.10454 -15.07547 -11.10908 -11.07674
 Alpha  occ. eigenvalues --  -11.05731 -11.04884 -11.04545 -11.03883 -11.01865
 Alpha  occ. eigenvalues --  -11.01333 -11.00170 -11.00086 -10.98497 -10.94134
 Alpha  occ. eigenvalues --   -1.81199  -1.80773  -1.79706  -1.79152  -1.67451
 Alpha  occ. eigenvalues --   -1.67222  -1.62076  -1.59214  -1.52660  -1.51290
 Alpha  occ. eigenvalues --   -1.47643  -1.42592  -1.40976  -1.35877  -1.30053
 Alpha  occ. eigenvalues --   -1.28105  -1.27475  -1.24702  -1.23691  -1.21294
 Alpha  occ. eigenvalues --   -1.17818  -1.17297  -1.15344  -1.14818  -1.14263
 Alpha  occ. eigenvalues --   -1.13928  -1.12389  -1.11336  -1.09697  -1.08230
 Alpha  occ. eigenvalues --   -1.06698  -1.05505  -1.04463  -1.03213  -1.01199
 Alpha  occ. eigenvalues --   -0.98177  -0.97664  -0.97073  -0.96056  -0.95109
 Alpha  occ. eigenvalues --   -0.94696  -0.94438  -0.91928  -0.90916  -0.89683
 Alpha virt. eigenvalues --   -0.74717  -0.74197  -0.72109  -0.71356  -0.67466
 Alpha virt. eigenvalues --   -0.65983  -0.65493  -0.62235  -0.59851  -0.54370
 Alpha virt. eigenvalues --   -0.51592  -0.48756  -0.48030  -0.46204  -0.43488
 Alpha virt. eigenvalues --   -0.35446  -0.31522  -0.30462  -0.29175  -0.29041
 Alpha virt. eigenvalues --   -0.28995  -0.27274  -0.26150  -0.25462  -0.24557
 Alpha virt. eigenvalues --   -0.22666  -0.21743  -0.20833  -0.20164  -0.18808
 Alpha virt. eigenvalues --   -0.17219  -0.16237  -0.14488  -0.11675  -0.10278
 Alpha virt. eigenvalues --   -0.07518  -0.06054  -0.05624  -0.00721   0.00678
 Alpha virt. eigenvalues --    0.02640   0.03217   0.04122   0.05453   0.05647
 Alpha virt. eigenvalues --    0.06786   0.07177   0.07782   0.08278   0.09158
 Alpha virt. eigenvalues --    0.09770   0.10479   0.10646   0.11551   0.11922
 Alpha virt. eigenvalues --    0.12582   0.12969   0.13747   0.14209   0.14974
 Alpha virt. eigenvalues --    0.15431   0.16108   0.17633   0.18115   0.18996
 Alpha virt. eigenvalues --    0.20378   0.21666   0.21715   0.22765   0.23997
 Alpha virt. eigenvalues --    0.25282   0.27145   0.27699   0.28630   0.30977
 Alpha virt. eigenvalues --    0.32845   0.33609   0.34465   0.37543   0.38178
 Alpha virt. eigenvalues --    0.38793   0.39187   0.39470   0.42157   0.43647
 Alpha virt. eigenvalues --    0.44978   0.45431   0.46305   0.47901   0.48701
 Alpha virt. eigenvalues --    0.50116   0.50650   0.51904   0.52862   0.53828
 Alpha virt. eigenvalues --    0.56251   0.57444   0.58750   0.60349   0.61551
 Alpha virt. eigenvalues --    0.63058   0.64458   0.67336   0.69334   0.71820
 Alpha virt. eigenvalues --    0.73375   0.74373   0.77511   0.80981   0.82004
 Alpha virt. eigenvalues --    0.84142   0.88730   0.99220   1.06867   1.09765
 Alpha virt. eigenvalues --    1.10372   1.16007   1.22774   1.28847   1.44205
 Alpha virt. eigenvalues --    1.53488
          Condensed to atoms (all electrons):
               1          2          3          4          5          6
     1  C    4.928424   0.343339   0.077507  -0.022961   0.001676   0.000669
     2  O    0.343339   7.804538  -0.079632   0.005565  -0.001058   0.000004
     3  N    0.077507  -0.079632   7.121352   0.134703  -0.076317   0.004251
     4  C   -0.022961   0.005565   0.134703   5.588119   0.099154  -0.121171
     5  C    0.001676  -0.001058  -0.076317   0.099154   5.111296   0.477332
     6  O    0.000669   0.000004   0.004251  -0.121171   0.477332   7.964908
     7  N    0.000670   0.000136  -0.000395  -0.158939   0.123847  -0.146995
     8  C   -0.000016  -0.000001  -0.000308   0.006077  -0.053718  -0.010339
     9  C    0.002257   0.000638  -0.064187   0.335463  -0.082627  -0.002586
    10  C   -0.000093   0.000006   0.002853   0.001173   0.000630  -0.002923
    11  C    0.000000   0.000000  -0.000004  -0.000157   0.003109  -0.000676
    12  O    0.000000   0.000000   0.000000   0.000000  -0.000014  -0.000004
    13  N   -0.000000  -0.000000   0.000000  -0.000002  -0.000049   0.000031
    14  C    0.000000   0.000000  -0.000000  -0.000000  -0.000005  -0.000000
    15  C    0.000006   0.000001  -0.000003  -0.000360   0.003498   0.000249
    16  C   -0.000000  -0.000000   0.000000   0.000002  -0.000461  -0.000023
    17  N    0.000000  -0.000000   0.000000  -0.000000  -0.000002   0.000000
    18  C    0.000000   0.000000  -0.000000  -0.000000   0.000011  -0.000001
    19  C   -0.000000  -0.000000  -0.000000   0.000000   0.000000  -0.000000
    20  N   -0.000000  -0.000000   0.000000  -0.000000  -0.000000  -0.000000
    21  H    0.363588  -0.041865  -0.073840   0.006412  -0.000047   0.000020
    22  H    0.000576   0.000218  -0.005661  -0.019893   0.002452  -0.000030
    23  H   -0.000000  -0.000000   0.000000   0.000000   0.000001   0.000000
               7          8          9         10         11         12
     1  C    0.000670  -0.000016   0.002257  -0.000093   0.000000   0.000000
     2  O    0.000136  -0.000001   0.000638   0.000006   0.000000   0.000000
     3  N   -0.000395  -0.000308  -0.064187   0.002853  -0.000004   0.000000
     4  C   -0.158939   0.006077   0.335463   0.001173  -0.000157   0.000000
     5  C    0.123847  -0.053718  -0.082627   0.000630   0.003109  -0.000014
     6  O   -0.146995  -0.010339  -0.002586  -0.002923  -0.000676  -0.000004
     7  N    7.342642   0.286761  -0.003520   0.002034  -0.063147   0.001945
     8  C    0.286761   5.619187  -0.000516   0.000017   0.103597  -0.127151
     9  C   -0.003520  -0.000516   5.519079   0.112308   0.000015  -0.000000
    10  C    0.002034   0.000017   0.112308   5.352898  -0.000018  -0.000000
    11  C   -0.063147   0.103597   0.000015  -0.000018   5.245259   0.477766
    12  O    0.001945  -0.127151  -0.000000  -0.000000   0.477766   7.927509
    13  N    0.003955  -0.176462   0.000000  -0.000001  -0.026277  -0.153803
    14  C   -0.000183   0.004783   0.000000  -0.000000  -0.026885  -0.007446
    15  C   -0.123560   0.247534  -0.000013   0.000003  -0.050702   0.006161
    16  C    0.008037  -0.007699   0.000000  -0.000000   0.002645  -0.002112
    17  N   -0.000026   0.005786   0.000000   0.000000  -0.000316  -0.000007
    18  C   -0.000352  -0.034702  -0.000000  -0.000000   0.006679  -0.000000
    19  C    0.000001  -0.000441  -0.000000  -0.000000   0.000039   0.000001
    20  N    0.000001   0.000176   0.000000   0.000000  -0.000163   0.000001
    21  H    0.000006  -0.000000  -0.000066  -0.000000   0.000000   0.000000
    22  H   -0.000089   0.000003   0.332886  -0.015208  -0.000000  -0.000000
    23  H    0.000019  -0.000424  -0.000000   0.000000  -0.002313  -0.000968
              13         14         15         16         17         18
     1  C   -0.000000   0.000000   0.000006  -0.000000   0.000000   0.000000
     2  O   -0.000000   0.000000   0.000001  -0.000000  -0.000000   0.000000
     3  N    0.000000  -0.000000  -0.000003   0.000000   0.000000  -0.000000
     4  C   -0.000002  -0.000000  -0.000360   0.000002  -0.000000  -0.000000
     5  C   -0.000049  -0.000005   0.003498  -0.000461  -0.000002   0.000011
     6  O    0.000031  -0.000000   0.000249  -0.000023   0.000000  -0.000001
     7  N    0.003955  -0.000183  -0.123560   0.008037  -0.000026  -0.000352
     8  C   -0.176462   0.004783   0.247534  -0.007699   0.005786  -0.034702
     9  C    0.000000   0.000000  -0.000013   0.000000   0.000000  -0.000000
    10  C   -0.000001  -0.000000   0.000003  -0.000000   0.000000  -0.000000
    11  C   -0.026277  -0.026885  -0.050702   0.002645  -0.000316   0.006679
    12  O   -0.153803  -0.007446   0.006161  -0.002112  -0.000007  -0.000000
    13  N    7.229559   0.370623   0.003297  -0.000226  -0.000002   0.001573
    14  C    0.370623   4.807413  -0.000201  -0.000152  -0.000000   0.000612
    15  C    0.003297  -0.000201   5.414601   0.136285  -0.062314  -0.087582
    16  C   -0.000226  -0.000152   0.136285   5.471899   0.354311   0.150870
    17  N   -0.000002  -0.000000  -0.062314   0.354311   6.778058  -0.215412
    18  C    0.001573   0.000612  -0.087582   0.150870  -0.215412   5.385144
    19  C   -0.000001   0.000000   0.004918  -0.054633   0.445760  -0.089672
    20  N    0.000048  -0.000006   0.008927  -0.018141  -0.109409   0.364988
    21  H   -0.000000   0.000000   0.000000  -0.000000   0.000000   0.000000
    22  H   -0.000000  -0.000000  -0.000000   0.000000   0.000000  -0.000000
    23  H   -0.027642   0.318614   0.000004   0.000000  -0.000000   0.000003
              19         20         21         22         23
     1  C   -0.000000  -0.000000   0.363588   0.000576  -0.000000
     2  O   -0.000000  -0.000000  -0.041865   0.000218  -0.000000
     3  N   -0.000000   0.000000  -0.073840  -0.005661   0.000000
     4  C    0.000000  -0.000000   0.006412  -0.019893   0.000000
     5  C    0.000000  -0.000000  -0.000047   0.002452   0.000001
     6  O   -0.000000  -0.000000   0.000020  -0.000030   0.000000
     7  N    0.000001   0.000001   0.000006  -0.000089   0.000019
     8  C   -0.000441   0.000176  -0.000000   0.000003  -0.000424
     9  C   -0.000000   0.000000  -0.000066   0.332886  -0.000000
    10  C   -0.000000   0.000000  -0.000000  -0.015208   0.000000
    11  C    0.000039  -0.000163   0.000000  -0.000000  -0.002313
    12  O    0.000001   0.000001   0.000000  -0.000000  -0.000968
    13  N   -0.000001   0.000048  -0.000000  -0.000000  -0.027642
    14  C    0.000000  -0.000006   0.000000  -0.000000   0.318614
    15  C    0.004918   0.008927   0.000000  -0.000000   0.000004
    16  C   -0.054633  -0.018141  -0.000000   0.000000   0.000000
    17  N    0.445760  -0.109409   0.000000   0.000000  -0.000000
    18  C   -0.089672   0.364988   0.000000  -0.000000   0.000003
    19  C    4.520399   0.351954  -0.000000   0.000000  -0.000000
    20  N    0.351954   6.614698  -0.000000   0.000000   0.000000
    21  H   -0.000000  -0.000000   0.344957  -0.000005  -0.000000
    22  H    0.000000   0.000000  -0.000005   0.315550   0.000000
    23  H   -0.000000   0.000000  -0.000000   0.000000   0.279039
 Mulliken charges:
               1
     1  C    0.304357
     2  O   -0.031889
     3  N   -0.040319
     4  C    0.146816
     5  C    0.391295
     6  O   -0.162713
     7  N   -0.272849
     8  C    0.137857
     9  C   -0.149130
    10  C    0.546322
    11  C    0.331550
    12  O   -0.121879
    13  N   -0.224621
    14  C    0.532834
    15  C    0.499251
    16  C   -0.040603
    17  N   -0.196427
    18  C    0.517843
    19  C    0.821673
    20  N   -0.213073
    21  H    0.400841
    22  H    0.389202
    23  H    0.433665
 Sum of Mulliken charges =   4.00000
 Mulliken charges with hydrogens summed into heavy atoms:
               1
     1  C    0.705198
     2  O   -0.031889
     3  N   -0.040319
     4  C    0.146816
     5  C    0.391295
     6  O   -0.162713
     7  N   -0.272849
     8  C    0.137857
     9  C    0.240072
    10  C    0.546322
    11  C    0.331550
    12  O   -0.121879
    13  N   -0.224621
    14  C    0.966499
    15  C    0.499251
    16  C   -0.040603
    17  N   -0.196427
    18  C    0.517843
    19  C    0.821673
    20  N   -0.213073
 Electronic spatial extent (au):  <R**2>=           6068.7003
 Charge=              4.0000 electrons
 Dipole moment (field-independent basis, Debye):
    X=             -2.2420    Y=              6.6648    Z=             -1.4777  Tot=              7.1854
 Quadrupole moment (field-independent basis, Debye-Ang):
   XX=            149.6813   YY=             12.7081   ZZ=           -103.5573
   XY=             -4.6112   XZ=             -1.6744   YZ=              1.5169
 Traceless Quadrupole moment (field-independent basis, Debye-Ang):
   XX=            130.0705   YY=             -6.9026   ZZ=           -123.1680
   XY=             -4.6112   XZ=             -1.6744   YZ=              1.5169
 Octapole moment (field-independent basis, Debye-Ang**2):
  XXX=            110.1699  YYY=            175.4404  ZZZ=              7.3484  XYY=           -122.0189
  XXY=           -136.4178  XXZ=            -43.6350  XZZ=              4.6989  YZZ=              5.2236
  YYZ=             14.1597  XYZ=            -54.8180
 Hexadecapole moment (field-independent basis, Debye-Ang**3):
 XXXX=          -1120.9941 YYYY=           -448.0502 ZZZZ=           -496.5818 XXXY=            329.1093
 XXXZ=             54.1891 YYYX=           -449.9437 YYYZ=            107.4615 ZZZX=             20.5256
 ZZZY=              2.7534 XXYY=            136.9797 XXZZ=           -976.1169 YYZZ=           -345.5442
 XXYZ=            -23.5997 YYXZ=            -34.5290 ZZXY=             -4.3026
 N-N= 1.279330958486D+03 E-N=-4.711167767098D+03  KE= 9.498124499936D+02
 No NMR shielding tensors so no spin-rotation constants.
 Leave Link  601 at Wed Jan  5 16:39:31 2022, MaxMem=   402653184 cpu:              44.9 elap:               6.6
 (Enter /work/01114/jfonner/frontera/gaussian/16rC.01/g16/l9999.exe)
 Unable to Open any file for archive entry.
 1\1\GINC-C202-005\SP\RwB97XD\6-31G\C12H3N5O3(4+)\SA748948\05-Jan-2022\
 0\\#p int=acc2e=12 wb97xd/6-31g\\Atom number=23\\4,1\C,0,-1.636,0.175,
 4.6\O,0,-1.744,1.356,4.862\N,0,-1.095,-0.7,5.415\C,0,-0.572,-0.311,6.6
 69\C,0,0.84,-0.854,6.792\O,0,1.027,-2.022,6.72\N,0,1.81,0.002,7.023\C,
 0,3.191,-0.429,7.101\C,0,-1.411,-0.913,7.797\C,0,-0.727,-0.645,9.123\C
 ,0,3.911,0.258,8.229\O,0,4.064,1.478,8.228\N,0,4.364,-0.527,9.189\C,0,
 5.067,0.02,10.326\C,0,3.871,-0.103,5.748\C,0,5.247,-0.643,5.581\N,0,5.
 861,-0.689,4.353\C,0,6.108,-1.197,6.448\C,0,7.059,-1.227,4.482\N,0,7.2
 39,-1.523,5.751\H,0,-1.9392756,-0.22723172,3.6560013\H,0,-2.40237511,-
 0.5104546,7.79129014\H,0,4.49403548,0.59368433,11.02421053\\Version=ES
 64L-G16RevC.01\State=1-A\HF=-954.5677674\RMSD=8.484e-09\Dipole=0.76493
 82,-0.3659118,2.6967675\Quadrupole=95.6225646,-89.7247903,-5.8977743,-
 11.7002572,7.535312,9.3901296\PG=C01 [X(C12H3N5O3)]\\@
 The archive entry for this job was punched.


 E PUR SI MUOVE    -- GALILEO GALILEI
 Job cpu time:       0 days  0 hours 51 minutes 42.3 seconds.
 Elapsed time:       0 days  0 hours  9 minutes 10.4 seconds.
 File lengths (MBytes):  RWF=     22 Int=      0 D2E=      0 Chk=      3 Scr=      1
 Normal termination of Gaussian 16 at Wed Jan  5 16:39:32 2022.
