Atom number=18                                                          
SP        RwB97XD                                                     6-31G               
Number of atoms                            I               18
Info1-9                                    I   N=           9
          80          27           0           0           0         110
           1          18       -5802
Full Title                                 C   N=           2
Atom number=18          
Route                                      C   N=           3
#p int=acc2e=12 wb97xd/6-31g        
Charge                                     I                4
Multiplicity                               I                1
Number of electrons                        I               98
Number of alpha electrons                  I               49
Number of beta electrons                   I               49
Number of basis functions                  I              141
Number of independent functions            I              141
Number of point charges in /Mol/           I                0
Number of translation vectors              I                0
Atomic numbers                             I   N=          18
           6           8           7           6           6           8
           7           6           6           8           7           6
           6           6           6           1           1           1
Nuclear charges                            R   N=          18
  6.00000000E+00  8.00000000E+00  7.00000000E+00  6.00000000E+00  6.00000000E+00
  8.00000000E+00  7.00000000E+00  6.00000000E+00  6.00000000E+00  8.00000000E+00
  7.00000000E+00  6.00000000E+00  6.00000000E+00  6.00000000E+00  6.00000000E+00
  1.00000000E+00  1.00000000E+00  1.00000000E+00
Current cartesian coordinates              R   N=          54
 -7.53068210E+00  3.12208201E-01  8.61857222E-01 -7.72302408E+00  1.56072243E-01
 -1.44842364E+00 -5.85276923E+00 -9.76642182E-01  2.18396179E+00 -4.08873269E+00
 -2.65801370E+00  9.54704326E-01 -2.07162740E+00 -1.48053043E+00 -6.06029682E-01
 -2.10517079E+00 -1.54486596E+00 -2.91270874E+00 -2.55869790E-01 -4.15847615E-01
  7.00843452E-01  1.90624331E+00  9.27259334E-01 -4.34424071E-01  4.16329943E+00
 -4.08633523E-01  5.58402565E-01  4.59638296E+00 -5.05151916E-01  2.83357693E+00
  5.54990409E+00 -1.54741356E+00 -1.17508131E+00  7.51297649E+00 -3.31428200E+00
 -4.45107711E-01  2.03914151E+00  3.68388872E+00  3.66991084E-01  4.58190457E+00
  4.87479836E+00 -3.66036125E-01 -1.31620882E-01  5.07047461E+00 -7.92871997E-01
 -8.75826850E+00  1.51777132E+00  1.92400662E+00  9.22680784E+00 -2.63209959E+00
 -1.27331143E+00  7.01168704E+00 -5.19780061E+00 -9.83232804E-01
Number of symbols in /Mol/                 I                0
Int Atom Types                             I   N=          18
           0           0           0           0           0           0
           0           0           0           0           0           0
           0           0           0           0           0           0
Force Field                                I                0
Atom Types                                 C   N=          18
                                                            
                                                            
                                                            
                                    
MM charges                                 R   N=          18
  0.00000000E+00  0.00000000E+00  0.00000000E+00  0.00000000E+00  0.00000000E+00
  0.00000000E+00  0.00000000E+00  0.00000000E+00  0.00000000E+00  0.00000000E+00
  0.00000000E+00  0.00000000E+00  0.00000000E+00  0.00000000E+00  0.00000000E+00
  0.00000000E+00  0.00000000E+00  0.00000000E+00
Integer atomic weights                     I   N=          18
          12          16          14          12          12          16
          14          12          12          16          14          12
          12          12          12           1           1           1
Real atomic weights                        R   N=          18
  1.20000000E+01  1.59949146E+01  1.40030740E+01  1.20000000E+01  1.20000000E+01
  1.59949146E+01  1.40030740E+01  1.20000000E+01  1.20000000E+01  1.59949146E+01
  1.40030740E+01  1.20000000E+01  1.20000000E+01  1.20000000E+01  1.20000000E+01
  1.00782504E+00  1.00782504E+00  1.00782504E+00
Atom fragment info                         I   N=          18
           0           0           0           0           0           0
           0           0           0           0           0           0
           0           0           0           0           0           0
Atom residue num                           I   N=          18
           0           0           0           0           0           0
           0           0           0           0           0           0
           0           0           0           0           0           0
Nuclear spins                              I   N=          18
           0           0           2           0           0           0
           2           0           0           0           2           0
           0           0           0           1           1           1
Nuclear ZEff                               R   N=          18
 -3.60000000E+00 -5.60000000E+00 -4.55000000E+00 -3.60000000E+00 -3.60000000E+00
 -5.60000000E+00 -4.55000000E+00 -3.60000000E+00 -3.60000000E+00 -5.60000000E+00
 -4.55000000E+00 -3.60000000E+00 -3.60000000E+00 -3.60000000E+00 -3.60000000E+00
 -1.00000000E+00 -1.00000000E+00 -1.00000000E+00
Nuclear ZNuc                               R   N=          18
  6.00000000E+00  8.00000000E+00  7.00000000E+00  6.00000000E+00  6.00000000E+00
  8.00000000E+00  7.00000000E+00  6.00000000E+00  6.00000000E+00  8.00000000E+00
  7.00000000E+00  6.00000000E+00  6.00000000E+00  6.00000000E+00  6.00000000E+00
  1.00000000E+00  1.00000000E+00  1.00000000E+00
Nuclear QMom                               R   N=          18
  0.00000000E+00  0.00000000E+00  2.04400000E+00  0.00000000E+00  0.00000000E+00
  0.00000000E+00  2.04400000E+00  0.00000000E+00  0.00000000E+00  0.00000000E+00
  2.04400000E+00  0.00000000E+00  0.00000000E+00  0.00000000E+00  0.00000000E+00
  0.00000000E+00  0.00000000E+00  0.00000000E+00
Nuclear GFac                               R   N=          18
  0.00000000E+00  0.00000000E+00  4.03761000E-01  0.00000000E+00  0.00000000E+00
  0.00000000E+00  4.03761000E-01  0.00000000E+00  0.00000000E+00  0.00000000E+00
  4.03761000E-01  0.00000000E+00  0.00000000E+00  0.00000000E+00  0.00000000E+00
  2.79284600E+00  2.79284600E+00  2.79284600E+00
MicOpt                                     I   N=          18
          -1          -1          -1          -1          -1          -1
          -1          -1          -1          -1          -1          -1
          -1          -1          -1          -1          -1          -1
Number of residues                         I                0
Number of secondary structures             I                0
SymInf integers                            I   N=          26
           1           1           1           1           1           0
           0           0           0           0           0           0
           0           0           0           0           0           0
           0           0           0           0           0           0
           0           0
RotTr to input orientation                 R   N=          12
 -2.07575829E-01 -5.65961562E-02  9.76580335E-01 -9.77324760E-01  5.46742068E-02
 -2.04565503E-01 -4.18161340E-02 -9.96898995E-01 -6.66618686E-02  6.16869964E+00
  9.03456542E-01  2.30261924E+01
Number of contracted shells                I               51
Number of primitive shells                 I              162
Pure/Cartesian d shells                    I                1
Pure/Cartesian f shells                    I                0
Highest angular momentum                   I                1
Largest degree of contraction              I                6
Shell types                                I   N=          51
           0          -1          -1           0          -1          -1
           0          -1          -1           0          -1          -1
           0          -1          -1           0          -1          -1
           0          -1          -1           0          -1          -1
           0          -1          -1           0          -1          -1
           0          -1          -1           0          -1          -1
           0          -1          -1           0          -1          -1
           0          -1          -1           0           0           0
           0           0           0
Number of primitives per shell             I   N=          51
           6           3           1           6           3           1
           6           3           1           6           3           1
           6           3           1           6           3           1
           6           3           1           6           3           1
           6           3           1           6           3           1
           6           3           1           6           3           1
           6           3           1           6           3           1
           6           3           1           3           1           3
           1           3           1
Shell to atom map                          I   N=          51
           1           1           1           2           2           2
           3           3           3           4           4           4
           5           5           5           6           6           6
           7           7           7           8           8           8
           9           9           9          10          10          10
          11          11          11          12          12          12
          13          13          13          14          14          14
          15          15          15          16          16          17
          17          18          18
Primitive exponents                        R   N=         162
  3.04752488E+03  4.57369518E+02  1.03948685E+02  2.92101553E+01  9.28666296E+00
  3.16392696E+00  7.86827235E+00  1.88128854E+00  5.44249258E-01  1.68714478E-01
  5.48467166E+03  8.25234946E+02  1.88046958E+02  5.29645000E+01  1.68975704E+01
  5.79963534E+00  1.55396162E+01  3.59993359E+00  1.01376175E+00  2.70005823E-01
  4.17351146E+03  6.27457911E+02  1.42902093E+02  4.02343293E+01  1.28202129E+01
  4.39043701E+00  1.16263619E+01  2.71627981E+00  7.72218397E-01  2.12031498E-01
  3.04752488E+03  4.57369518E+02  1.03948685E+02  2.92101553E+01  9.28666296E+00
  3.16392696E+00  7.86827235E+00  1.88128854E+00  5.44249258E-01  1.68714478E-01
  3.04752488E+03  4.57369518E+02  1.03948685E+02  2.92101553E+01  9.28666296E+00
  3.16392696E+00  7.86827235E+00  1.88128854E+00  5.44249258E-01  1.68714478E-01
  5.48467166E+03  8.25234946E+02  1.88046958E+02  5.29645000E+01  1.68975704E+01
  5.79963534E+00  1.55396162E+01  3.59993359E+00  1.01376175E+00  2.70005823E-01
  4.17351146E+03  6.27457911E+02  1.42902093E+02  4.02343293E+01  1.28202129E+01
  4.39043701E+00  1.16263619E+01  2.71627981E+00  7.72218397E-01  2.12031498E-01
  3.04752488E+03  4.57369518E+02  1.03948685E+02  2.92101553E+01  9.28666296E+00
  3.16392696E+00  7.86827235E+00  1.88128854E+00  5.44249258E-01  1.68714478E-01
  3.04752488E+03  4.57369518E+02  1.03948685E+02  2.92101553E+01  9.28666296E+00
  3.16392696E+00  7.86827235E+00  1.88128854E+00  5.44249258E-01  1.68714478E-01
  5.48467166E+03  8.25234946E+02  1.88046958E+02  5.29645000E+01  1.68975704E+01
  5.79963534E+00  1.55396162E+01  3.59993359E+00  1.01376175E+00  2.70005823E-01
  4.17351146E+03  6.27457911E+02  1.42902093E+02  4.02343293E+01  1.28202129E+01
  4.39043701E+00  1.16263619E+01  2.71627981E+00  7.72218397E-01  2.12031498E-01
  3.04752488E+03  4.57369518E+02  1.03948685E+02  2.92101553E+01  9.28666296E+00
  3.16392696E+00  7.86827235E+00  1.88128854E+00  5.44249258E-01  1.68714478E-01
  3.04752488E+03  4.57369518E+02  1.03948685E+02  2.92101553E+01  9.28666296E+00
  3.16392696E+00  7.86827235E+00  1.88128854E+00  5.44249258E-01  1.68714478E-01
  3.04752488E+03  4.57369518E+02  1.03948685E+02  2.92101553E+01  9.28666296E+00
  3.16392696E+00  7.86827235E+00  1.88128854E+00  5.44249258E-01  1.68714478E-01
  3.04752488E+03  4.57369518E+02  1.03948685E+02  2.92101553E+01  9.28666296E+00
  3.16392696E+00  7.86827235E+00  1.88128854E+00  5.44249258E-01  1.68714478E-01
  1.87311370E+01  2.82539436E+00  6.40121692E-01  1.61277759E-01  1.87311370E+01
  2.82539436E+00  6.40121692E-01  1.61277759E-01  1.87311370E+01  2.82539436E+00
  6.40121692E-01  1.61277759E-01
Contraction coefficients                   R   N=         162
  1.83473713E-03  1.40373228E-02  6.88426223E-02  2.32184443E-01  4.67941348E-01
  3.62311985E-01 -1.19332420E-01 -1.60854152E-01  1.14345644E+00  1.00000000E+00
  1.83107443E-03  1.39501722E-02  6.84450781E-02  2.32714336E-01  4.70192898E-01
  3.58520853E-01 -1.10777550E-01 -1.48026263E-01  1.13076702E+00  1.00000000E+00
  1.83477216E-03  1.39946270E-02  6.85865518E-02  2.32240873E-01  4.69069948E-01
  3.60455199E-01 -1.14961182E-01 -1.69117479E-01  1.14585195E+00  1.00000000E+00
  1.83473713E-03  1.40373228E-02  6.88426223E-02  2.32184443E-01  4.67941348E-01
  3.62311985E-01 -1.19332420E-01 -1.60854152E-01  1.14345644E+00  1.00000000E+00
  1.83473713E-03  1.40373228E-02  6.88426223E-02  2.32184443E-01  4.67941348E-01
  3.62311985E-01 -1.19332420E-01 -1.60854152E-01  1.14345644E+00  1.00000000E+00
  1.83107443E-03  1.39501722E-02  6.84450781E-02  2.32714336E-01  4.70192898E-01
  3.58520853E-01 -1.10777550E-01 -1.48026263E-01  1.13076702E+00  1.00000000E+00
  1.83477216E-03  1.39946270E-02  6.85865518E-02  2.32240873E-01  4.69069948E-01
  3.60455199E-01 -1.14961182E-01 -1.69117479E-01  1.14585195E+00  1.00000000E+00
  1.83473713E-03  1.40373228E-02  6.88426223E-02  2.32184443E-01  4.67941348E-01
  3.62311985E-01 -1.19332420E-01 -1.60854152E-01  1.14345644E+00  1.00000000E+00
  1.83473713E-03  1.40373228E-02  6.88426223E-02  2.32184443E-01  4.67941348E-01
  3.62311985E-01 -1.19332420E-01 -1.60854152E-01  1.14345644E+00  1.00000000E+00
  1.83107443E-03  1.39501722E-02  6.84450781E-02  2.32714336E-01  4.70192898E-01
  3.58520853E-01 -1.10777550E-01 -1.48026263E-01  1.13076702E+00  1.00000000E+00
  1.83477216E-03  1.39946270E-02  6.85865518E-02  2.32240873E-01  4.69069948E-01
  3.60455199E-01 -1.14961182E-01 -1.69117479E-01  1.14585195E+00  1.00000000E+00
  1.83473713E-03  1.40373228E-02  6.88426223E-02  2.32184443E-01  4.67941348E-01
  3.62311985E-01 -1.19332420E-01 -1.60854152E-01  1.14345644E+00  1.00000000E+00
  1.83473713E-03  1.40373228E-02  6.88426223E-02  2.32184443E-01  4.67941348E-01
  3.62311985E-01 -1.19332420E-01 -1.60854152E-01  1.14345644E+00  1.00000000E+00
  1.83473713E-03  1.40373228E-02  6.88426223E-02  2.32184443E-01  4.67941348E-01
  3.62311985E-01 -1.19332420E-01 -1.60854152E-01  1.14345644E+00  1.00000000E+00
  1.83473713E-03  1.40373228E-02  6.88426223E-02  2.32184443E-01  4.67941348E-01
  3.62311985E-01 -1.19332420E-01 -1.60854152E-01  1.14345644E+00  1.00000000E+00
  3.34946043E-02  2.34726953E-01  8.13757326E-01  1.00000000E+00  3.34946043E-02
  2.34726953E-01  8.13757326E-01  1.00000000E+00  3.34946043E-02  2.34726953E-01
  8.13757326E-01  1.00000000E+00
P(S=P) Contraction coefficients            R   N=         162
  0.00000000E+00  0.00000000E+00  0.00000000E+00  0.00000000E+00  0.00000000E+00
  0.00000000E+00  6.89990666E-02  3.16423961E-01  7.44308291E-01  1.00000000E+00
  0.00000000E+00  0.00000000E+00  0.00000000E+00  0.00000000E+00  0.00000000E+00
  0.00000000E+00  7.08742682E-02  3.39752839E-01  7.27158577E-01  1.00000000E+00
  0.00000000E+00  0.00000000E+00  0.00000000E+00  0.00000000E+00  0.00000000E+00
  0.00000000E+00  6.75797439E-02  3.23907296E-01  7.40895140E-01  1.00000000E+00
  0.00000000E+00  0.00000000E+00  0.00000000E+00  0.00000000E+00  0.00000000E+00
  0.00000000E+00  6.89990666E-02  3.16423961E-01  7.44308291E-01  1.00000000E+00
  0.00000000E+00  0.00000000E+00  0.00000000E+00  0.00000000E+00  0.00000000E+00
  0.00000000E+00  6.89990666E-02  3.16423961E-01  7.44308291E-01  1.00000000E+00
  0.00000000E+00  0.00000000E+00  0.00000000E+00  0.00000000E+00  0.00000000E+00
  0.00000000E+00  7.08742682E-02  3.39752839E-01  7.27158577E-01  1.00000000E+00
  0.00000000E+00  0.00000000E+00  0.00000000E+00  0.00000000E+00  0.00000000E+00
  0.00000000E+00  6.75797439E-02  3.23907296E-01  7.40895140E-01  1.00000000E+00
  0.00000000E+00  0.00000000E+00  0.00000000E+00  0.00000000E+00  0.00000000E+00
  0.00000000E+00  6.89990666E-02  3.16423961E-01  7.44308291E-01  1.00000000E+00
  0.00000000E+00  0.00000000E+00  0.00000000E+00  0.00000000E+00  0.00000000E+00
  0.00000000E+00  6.89990666E-02  3.16423961E-01  7.44308291E-01  1.00000000E+00
  0.00000000E+00  0.00000000E+00  0.00000000E+00  0.00000000E+00  0.00000000E+00
  0.00000000E+00  7.08742682E-02  3.39752839E-01  7.27158577E-01  1.00000000E+00
  0.00000000E+00  0.00000000E+00  0.00000000E+00  0.00000000E+00  0.00000000E+00
  0.00000000E+00  6.75797439E-02  3.23907296E-01  7.40895140E-01  1.00000000E+00
  0.00000000E+00  0.00000000E+00  0.00000000E+00  0.00000000E+00  0.00000000E+00
  0.00000000E+00  6.89990666E-02  3.16423961E-01  7.44308291E-01  1.00000000E+00
  0.00000000E+00  0.00000000E+00  0.00000000E+00  0.00000000E+00  0.00000000E+00
  0.00000000E+00  6.89990666E-02  3.16423961E-01  7.44308291E-01  1.00000000E+00
  0.00000000E+00  0.00000000E+00  0.00000000E+00  0.00000000E+00  0.00000000E+00
  0.00000000E+00  6.89990666E-02  3.16423961E-01  7.44308291E-01  1.00000000E+00
  0.00000000E+00  0.00000000E+00  0.00000000E+00  0.00000000E+00  0.00000000E+00
  0.00000000E+00  6.89990666E-02  3.16423961E-01  7.44308291E-01  1.00000000E+00
  0.00000000E+00  0.00000000E+00  0.00000000E+00  0.00000000E+00  0.00000000E+00
  0.00000000E+00  0.00000000E+00  0.00000000E+00  0.00000000E+00  0.00000000E+00
  0.00000000E+00  0.00000000E+00
Coordinates of each shell                  R   N=         153
 -7.53068210E+00  3.12208201E-01  8.61857222E-01 -7.53068210E+00  3.12208201E-01
  8.61857222E-01 -7.53068210E+00  3.12208201E-01  8.61857222E-01 -7.72302408E+00
  1.56072243E-01 -1.44842364E+00 -7.72302408E+00  1.56072243E-01 -1.44842364E+00
 -7.72302408E+00  1.56072243E-01 -1.44842364E+00 -5.85276923E+00 -9.76642182E-01
  2.18396179E+00 -5.85276923E+00 -9.76642182E-01  2.18396179E+00 -5.85276923E+00
 -9.76642182E-01  2.18396179E+00 -4.08873269E+00 -2.65801370E+00  9.54704326E-01
 -4.08873269E+00 -2.65801370E+00  9.54704326E-01 -4.08873269E+00 -2.65801370E+00
  9.54704326E-01 -2.07162740E+00 -1.48053043E+00 -6.06029682E-01 -2.07162740E+00
 -1.48053043E+00 -6.06029682E-01 -2.07162740E+00 -1.48053043E+00 -6.06029682E-01
 -2.10517079E+00 -1.54486596E+00 -2.91270874E+00 -2.10517079E+00 -1.54486596E+00
 -2.91270874E+00 -2.10517079E+00 -1.54486596E+00 -2.91270874E+00 -2.55869790E-01
 -4.15847615E-01  7.00843452E-01 -2.55869790E-01 -4.15847615E-01  7.00843452E-01
 -2.55869790E-01 -4.15847615E-01  7.00843452E-01  1.90624331E+00  9.27259334E-01
 -4.34424071E-01  1.90624331E+00  9.27259334E-01 -4.34424071E-01  1.90624331E+00
  9.27259334E-01 -4.34424071E-01  4.16329943E+00 -4.08633523E-01  5.58402565E-01
  4.16329943E+00 -4.08633523E-01  5.58402565E-01  4.16329943E+00 -4.08633523E-01
  5.58402565E-01  4.59638296E+00 -5.05151916E-01  2.83357693E+00  4.59638296E+00
 -5.05151916E-01  2.83357693E+00  4.59638296E+00 -5.05151916E-01  2.83357693E+00
  5.54990409E+00 -1.54741356E+00 -1.17508131E+00  5.54990409E+00 -1.54741356E+00
 -1.17508131E+00  5.54990409E+00 -1.54741356E+00 -1.17508131E+00  7.51297649E+00
 -3.31428200E+00 -4.45107711E-01  7.51297649E+00 -3.31428200E+00 -4.45107711E-01
  7.51297649E+00 -3.31428200E+00 -4.45107711E-01  2.03914151E+00  3.68388872E+00
  3.66991084E-01  2.03914151E+00  3.68388872E+00  3.66991084E-01  2.03914151E+00
  3.68388872E+00  3.66991084E-01  4.58190457E+00  4.87479836E+00 -3.66036125E-01
  4.58190457E+00  4.87479836E+00 -3.66036125E-01  4.58190457E+00  4.87479836E+00
 -3.66036125E-01 -1.31620882E-01  5.07047461E+00 -7.92871997E-01 -1.31620882E-01
  5.07047461E+00 -7.92871997E-01 -1.31620882E-01  5.07047461E+00 -7.92871997E-01
 -8.75826850E+00  1.51777132E+00  1.92400662E+00 -8.75826850E+00  1.51777132E+00
  1.92400662E+00  9.22680784E+00 -2.63209959E+00 -1.27331143E+00  9.22680784E+00
 -2.63209959E+00 -1.27331143E+00  7.01168704E+00 -5.19780061E+00 -9.83232804E-01
  7.01168704E+00 -5.19780061E+00 -9.83232804E-01
Num ILSW                                   I              100
ILSW                                       I   N=         100
           0           1           0           0           2           0
           0           0           0           0        4639          -1
           5           0           0           0           0           0
           0           0           0           0           0           0
           1           0           0           0           0           0
           0           0      100000           0          -1           0
           0           0           0           0           0           0
           0           0           0           1           0           0
           0 -2000000000           1           0           0           0
           0           0         121          52           0           0
           0           0          58           0           0           0
           0           0           0          18           0           1
           0           0           0           0           0           0
           0           0           0           0           0           0
           0           0           0           0           0           0
           0           0           0           0           0           0
           0           0           0           0
Num RLSW                                   I               52
RLSW                                       R   N=          52
  1.00000000E+00  1.00000000E+00  1.00000000E+00  1.00000000E+00  1.00000000E+00
  0.00000000E+00  2.00000000E-01  2.22036000E-01  0.00000000E+00  7.77964000E-01
  0.00000000E+00  2.00000000E-01  0.00000000E+00  0.00000000E+00  1.00000000E+00
  0.00000000E+00  0.00000000E+00  1.00000000E+00  0.00000000E+00  0.00000000E+00
  0.00000000E+00  0.00000000E+00  1.00000000E+00  0.00000000E+00  0.00000000E+00
  0.00000000E+00  0.00000000E+00  1.00000000E+00  0.00000000E+00  0.00000000E+00
  0.00000000E+00  0.00000000E+00  1.00000000E+00  0.00000000E+00  0.00000000E+00
  0.00000000E+00  0.00000000E+00  0.00000000E+00  1.00000000E+00  1.00000000E+00
  0.00000000E+00  1.00000000E+00  0.00000000E+00  0.00000000E+00  0.00000000E+00
  0.00000000E+00  0.00000000E+00  0.00000000E+00  0.00000000E+00  0.00000000E+00
  0.00000000E+00  0.00000000E+00
MxBond                                     I                3
NBond                                      I   N=          18
           3           1           2           2           3           1
           2           3           3           1           2           3
           3           1           1           1           1           1
IBond                                      I   N=          54
           2           3          16           1           0           0
           1           4           0           3           5           0
           4           6           7           5           0           0
           5           8           0           7           9          13
           8          10          11           9           0           0
           9          12           0          11          17          18
           8          14          15          13           0           0
          13           0           0           1           0           0
          12           0           0          12           0           0
RBond                                      R   N=          54
  2.00000000E+00  1.50000000E+00  1.00000000E+00  2.00000000E+00  0.00000000E+00
  0.00000000E+00  1.50000000E+00  1.00000000E+00  0.00000000E+00  1.00000000E+00
  1.00000000E+00  0.00000000E+00  1.00000000E+00  2.00000000E+00  1.50000000E+00
  2.00000000E+00  0.00000000E+00  0.00000000E+00  1.50000000E+00  1.00000000E+00
  0.00000000E+00  1.00000000E+00  1.00000000E+00  1.00000000E+00  1.00000000E+00
  2.00000000E+00  1.50000000E+00  2.00000000E+00  0.00000000E+00  0.00000000E+00
  1.50000000E+00  1.00000000E+00  0.00000000E+00  1.00000000E+00  1.00000000E+00
  1.00000000E+00  1.00000000E+00  1.00000000E+00  1.00000000E+00  1.00000000E+00
  0.00000000E+00  0.00000000E+00  1.00000000E+00  0.00000000E+00  0.00000000E+00
  1.00000000E+00  0.00000000E+00  0.00000000E+00  1.00000000E+00  0.00000000E+00
  0.00000000E+00  1.00000000E+00  0.00000000E+00  0.00000000E+00
Virial Ratio                               R      2.004717898222631E+00
SCF Energy                                 R     -7.310516909451891E+02
Total Energy                               R     -7.310516909451891E+02
RMS Density                                R      5.532388731202509E-09
Job Status                                 I                1
Nuclear derivative order                   I                0
External E-field                           R   N=          35
  0.00000000E+00  0.00000000E+00  0.00000000E+00  0.00000000E+00  0.00000000E+00
  0.00000000E+00  0.00000000E+00  0.00000000E+00  0.00000000E+00  0.00000000E+00
  0.00000000E+00  0.00000000E+00  0.00000000E+00  0.00000000E+00  0.00000000E+00
  0.00000000E+00  0.00000000E+00  0.00000000E+00  0.00000000E+00  0.00000000E+00
  0.00000000E+00  0.00000000E+00  0.00000000E+00  0.00000000E+00  0.00000000E+00
  0.00000000E+00  0.00000000E+00  0.00000000E+00  0.00000000E+00  0.00000000E+00
  0.00000000E+00  0.00000000E+00  0.00000000E+00  0.00000000E+00  0.00000000E+00
IOpCl                                      I                0
IROHF                                      I                0
Alpha Orbital Energies                     R   N=         141
 -2.00125958E+01 -1.99810908E+01 -1.99507867E+01 -1.52503362E+01 -1.52193957E+01
 -1.52191212E+01 -1.12092333E+01 -1.11939745E+01 -1.11654208E+01 -1.11384329E+01
 -1.11346403E+01 -1.11326516E+01 -1.11043889E+01 -1.10709363E+01 -1.10397251E+01
 -1.91138552E+00 -1.88750680E+00 -1.83714171E+00 -1.75564843E+00 -1.74581470E+00
 -1.70747003E+00 -1.66465789E+00 -1.57030451E+00 -1.51987823E+00 -1.47899957E+00
 -1.45262758E+00 -1.37630571E+00 -1.33709686E+00 -1.32114522E+00 -1.26395320E+00
 -1.24835827E+00 -1.24276558E+00 -1.23621103E+00 -1.21710376E+00 -1.21403566E+00
 -1.18182765E+00 -1.17563815E+00 -1.16776298E+00 -1.14881036E+00 -1.13339514E+00
 -1.12208891E+00 -1.09188125E+00 -1.07712482E+00 -1.06450315E+00 -1.05767812E+00
 -1.04048633E+00 -1.03136973E+00 -1.01282742E+00 -9.65510575E-01 -8.67178624E-01
 -7.84395283E-01 -7.70225237E-01 -7.56507884E-01 -7.50858608E-01 -7.31939479E-01
 -7.30121733E-01 -6.99582292E-01 -6.39446785E-01 -6.09156182E-01 -5.72552295E-01
 -5.20457845E-01 -4.36645936E-01 -4.13236465E-01 -3.75866339E-01 -3.67578207E-01
 -3.56492210E-01 -3.53450786E-01 -3.45233031E-01 -3.27825166E-01 -3.12817803E-01
 -3.02679938E-01 -2.71677724E-01 -2.56520186E-01 -2.47514865E-01 -2.30017538E-01
 -1.81160525E-01 -1.61828587E-01 -1.39881928E-01 -9.31601346E-02 -8.62537378E-02
 -7.66120001E-02 -5.00552718E-02 -3.39447071E-02 -1.86210540E-02 -6.83769931E-03
  3.99973058E-03  9.85703354E-03  1.14216690E-02  1.36192638E-02  2.13591587E-02
  3.20792521E-02  4.44338905E-02  4.80524723E-02  5.12410364E-02  7.13284838E-02
  8.97536693E-02  1.00179856E-01  1.09492901E-01  1.16663128E-01  1.34263903E-01
  1.35049509E-01  1.45156722E-01  1.60064232E-01  1.74335257E-01  1.87434140E-01
  2.09348777E-01  2.13848296E-01  2.29489019E-01  2.56778915E-01  2.76846107E-01
  3.16063691E-01  3.54771923E-01  3.71392655E-01  3.85156007E-01  3.87109233E-01
  4.03591543E-01  4.21131719E-01  4.29181016E-01  4.35658035E-01  4.52469000E-01
  4.55313172E-01  4.88498387E-01  5.01235626E-01  5.19144207E-01  5.31048431E-01
  5.36967895E-01  5.70845983E-01  5.84767189E-01  6.19039662E-01  6.22980861E-01
  6.48268391E-01  6.75563913E-01  7.30369883E-01  7.98304840E-01  8.81902011E-01
  9.81843758E-01  1.05465618E+00  1.07059831E+00  1.22684777E+00  1.33841788E+00
  1.39618418E+00
Alpha MO coefficients                      R   N=       19881
 -1.82127581E-06 -2.87545844E-05 -2.80382472E-05  1.07670969E-05 -1.16428320E-07
 -1.77505458E-05  7.70474392E-05 -4.81542762E-05 -1.61903312E-04  9.77348251E-06
  2.34782949E-05 -4.53590258E-06 -1.58440472E-06  8.05082856E-07 -1.31539645E-04
 -1.25087456E-05  1.40767086E-05 -3.68412112E-05  2.99579986E-07  7.65985873E-06
  1.93324020E-05 -5.67379001E-06  1.12142961E-05 -1.39775252E-04 -1.54523810E-04
  1.19536521E-04  8.97120901E-06 -1.26166831E-06  3.55327490E-06  3.54016109E-06
  2.53498492E-05 -2.31166175E-05  4.50030610E-04  2.55045574E-05  2.22259551E-04
  1.02409114E-04 -8.49929843E-06 -1.23185711E-04 -1.15457385E-04 -6.20843607E-05
 -5.62264587E-05 -6.45412783E-04  2.50411097E-04 -4.58045418E-04 -6.78182051E-04
  1.54072777E-04  1.08201987E-04  3.62036729E-05 -2.07115982E-05  3.98737237E-06
 -4.55147680E-04 -1.68705869E-04  1.33182076E-04 -1.23891470E-04  1.07947442E-05
  1.09432063E-04  1.31979510E-04 -3.59818081E-05  6.78981671E-05  3.01170791E-04
 -1.55325121E-03  4.32606650E-04 -6.39376727E-04 -5.19874004E-05 -6.28804039E-04
 -3.03739860E-04  9.00704678E-05 -3.07274424E-04  4.87638781E-03  3.58754121E-03
 -1.80977787E-03 -7.16955038E-04  2.30854484E-04  1.53959219E-04  1.38433086E-04
 -1.01397219E-04 -1.61752076E-04  6.29695246E-03  2.28200289E-03 -2.22568320E-04
  1.56961193E-02  9.95279865E-01  2.99827615E-02 -5.15622236E-04  1.23206696E-04