 Entering Gaussian System, Link 0=g16
 Input=4znn_01_gebf_dft_5.gjf
 Output=4znn_01_gebf_dft_5.log
 Initial command:
 /work/01114/jfonner/frontera/gaussian/16rC.01/g16/l1.exe "/scratch1/08249/sa748948/lsqc/62950343/Gau-176209.inp" -scrdir="/scratch1/08249/sa748948/lsqc/62950343/"
 Entering Link 1 = /work/01114/jfonner/frontera/gaussian/16rC.01/g16/l1.exe PID=    176219.
  
 Copyright (c) 1988-2019, Gaussian, Inc.  All Rights Reserved.
  
 This is part of the Gaussian(R) 16 program.  It is based on
 the Gaussian(R) 09 system (copyright 2009, Gaussian, Inc.),
 the Gaussian(R) 03 system (copyright 2003, Gaussian, Inc.),
 the Gaussian(R) 98 system (copyright 1998, Gaussian, Inc.),
 the Gaussian(R) 94 system (copyright 1995, Gaussian, Inc.),
 the Gaussian 92(TM) system (copyright 1992, Gaussian, Inc.),
 the Gaussian 90(TM) system (copyright 1990, Gaussian, Inc.),
 the Gaussian 88(TM) system (copyright 1988, Gaussian, Inc.),
 the Gaussian 86(TM) system (copyright 1986, Carnegie Mellon
 University), and the Gaussian 82(TM) system (copyright 1983,
 Carnegie Mellon University). Gaussian is a federally registered
 trademark of Gaussian, Inc.
  
 This software contains proprietary and confidential information,
 including trade secrets, belonging to Gaussian, Inc.
  
 This software is provided under written license and may be
 used, copied, transmitted, or stored only in accord with that
 written license.
  
 The following legend is applicable only to US Government
 contracts under FAR:
  
                    RESTRICTED RIGHTS LEGEND
  
 Use, reproduction and disclosure by the US Government is
 subject to restrictions as set forth in subparagraphs (a)
 and (c) of the Commercial Computer Software - Restricted
 Rights clause in FAR 52.227-19.
  
 Gaussian, Inc.
 340 Quinnipiac St., Bldg. 40, Wallingford CT 06492
  
  
 ---------------------------------------------------------------
 Warning -- This program may not be used in any manner that
 competes with the business of Gaussian, Inc. or will provide
 assistance to any competitor of Gaussian, Inc.  The licensee
 of this program is prohibited from giving any competitor of
 Gaussian, Inc. access to this program.  By using this program,
 the user acknowledges that Gaussian, Inc. is engaged in the
 business of creating and licensing software in the field of
 computational chemistry and represents and warrants to the
 licensee that it is not a competitor of Gaussian, Inc. and that
 it will not use this program in any manner prohibited above.
 ---------------------------------------------------------------
  

 Cite this work as:
 Gaussian 16, Revision C.01,
 M. J. Frisch, G. W. Trucks, H. B. Schlegel, G. E. Scuseria, 
 M. A. Robb, J. R. Cheeseman, G. Scalmani, V. Barone, 
 G. A. Petersson, H. Nakatsuji, X. Li, M. Caricato, A. V. Marenich, 
 J. Bloino, B. G. Janesko, R. Gomperts, B. Mennucci, H. P. Hratchian, 
 J. V. Ortiz, A. F. Izmaylov, J. L. Sonnenberg, D. Williams-Young, 
 F. Ding, F. Lipparini, F. Egidi, J. Goings, B. Peng, A. Petrone, 
 T. Henderson, D. Ranasinghe, V. G. Zakrzewski, J. Gao, N. Rega, 
 G. Zheng, W. Liang, M. Hada, M. Ehara, K. Toyota, R. Fukuda, 
 J. Hasegawa, M. Ishida, T. Nakajima, Y. Honda, O. Kitao, H. Nakai, 
 T. Vreven, K. Throssell, J. A. Montgomery, Jr., J. E. Peralta, 
 F. Ogliaro, M. J. Bearpark, J. J. Heyd, E. N. Brothers, K. N. Kudin, 
 V. N. Staroverov, T. A. Keith, R. Kobayashi, J. Normand, 
 K. Raghavachari, A. P. Rendell, J. C. Burant, S. S. Iyengar, 
 J. Tomasi, M. Cossi, J. M. Millam, M. Klene, C. Adamo, R. Cammi, 
 J. W. Ochterski, R. L. Martin, K. Morokuma, O. Farkas, 
 J. B. Foresman, and D. J. Fox, Gaussian, Inc., Wallingford CT, 2019.
 
 ******************************************
 Gaussian 16:  ES64L-G16RevC.01  3-Jul-2019
                 5-Jan-2022 
 ******************************************
 %chk=4znn_01_gebf_dft_5.chk
 %nproc=56
 Will use up to   56 processors via shared memory.
 %mem=3gb
 ----------------------------
 #p int=acc2e=12 wb97xd/6-31g
 ----------------------------
 1/38=1,172=1/1;
 2/12=2,17=6,18=5,40=1/2;
 3/5=1,6=6,11=2,25=1,27=12,30=1,74=-58/1,2,3;
 4//1;
 5/5=2,38=5,87=12/2;
 6/7=2,8=2,9=2,10=2,28=1,87=12/1;
 99/5=1,9=1/99;
 Leave Link    1 at Wed Jan  5 16:30:22 2022, MaxMem=   402653184 cpu:               3.0 elap:               0.5
 (Enter /work/01114/jfonner/frontera/gaussian/16rC.01/g16/l101.exe)
 --------------
 Atom number=18
 --------------
 Symbolic Z-matrix:
 Charge =  4 Multiplicity = 1
 c                     3.911     0.258     8.229 
 o                     4.064     1.478     8.228 
 n                     4.364    -0.527     9.189 
 c                     5.067     0.02      10.326 
 c                     4.271     0.817     11.296 
 o                     4.359     2.033     11.367 
 n                     3.492     0.104     12.073 
 c                     2.585     0.677     13.085 
 c                     3.006     0.047     14.361 
 o                     2.958    -1.169     14.515 
 n                     3.481     0.887     15.262 
 c                     4.163     0.392     16.442 
 c                     1.127     0.33      12.827 
 c                     0.248     0.675     14.038 
 c                     0.674     1.047     11.596 
 h                     3.39885  -0.23068   7.42663 
 h                     3.64026   0.79732   17.28305 
 h                     5.20409   0.6364    16.40582 
 
 ITRead=  0  0  0  0  0  0  0  0  0  0  0  0  0  0  0  0  0  0
 MicOpt= -1 -1 -1 -1 -1 -1 -1 -1 -1 -1 -1 -1 -1 -1 -1 -1 -1 -1
 NAtoms=     18 NQM=       18 NQMF=       0 NMMI=      0 NMMIF=      0
                NMic=       0 NMicF=      0.
                    Isotopes and Nuclear Properties:
 (Nuclear quadrupole moments (NQMom) in fm**2, nuclear magnetic moments (NMagM)
  in nuclear magnetons)

  Atom         1           2           3           4           5           6           7           8           9          10
 IAtWgt=          12          16          14          12          12          16          14          12          12          16
 AtmWgt=  12.0000000  15.9949146  14.0030740  12.0000000  12.0000000  15.9949146  14.0030740  12.0000000  12.0000000  15.9949146
 NucSpn=           0           0           2           0           0           0           2           0           0           0
 AtZEff=  -0.0000000  -0.0000000  -0.0000000  -0.0000000  -0.0000000  -0.0000000  -0.0000000  -0.0000000  -0.0000000  -0.0000000
 NQMom=    0.0000000   0.0000000   2.0440000   0.0000000   0.0000000   0.0000000   2.0440000   0.0000000   0.0000000   0.0000000
 NMagM=    0.0000000   0.0000000   0.4037610   0.0000000   0.0000000   0.0000000   0.4037610   0.0000000   0.0000000   0.0000000
 AtZNuc=   6.0000000   8.0000000   7.0000000   6.0000000   6.0000000   8.0000000   7.0000000   6.0000000   6.0000000   8.0000000

  Atom        11          12          13          14          15          16          17          18
 IAtWgt=          14          12          12          12          12           1           1           1
 AtmWgt=  14.0030740  12.0000000  12.0000000  12.0000000  12.0000000   1.0078250   1.0078250   1.0078250
 NucSpn=           2           0           0           0           0           1           1           1
 AtZEff=  -0.0000000  -0.0000000  -0.0000000  -0.0000000  -0.0000000  -0.0000000  -0.0000000  -0.0000000
 NQMom=    2.0440000   0.0000000   0.0000000   0.0000000   0.0000000   0.0000000   0.0000000   0.0000000
 NMagM=    0.4037610   0.0000000   0.0000000   0.0000000   0.0000000   2.7928460   2.7928460   2.7928460
 AtZNuc=   7.0000000   6.0000000   6.0000000   6.0000000   6.0000000   1.0000000   1.0000000   1.0000000
 Leave Link  101 at Wed Jan  5 16:30:23 2022, MaxMem=   402653184 cpu:               5.4 elap:               1.0
 (Enter /work/01114/jfonner/frontera/gaussian/16rC.01/g16/l202.exe)
                          Input orientation:                          
 ---------------------------------------------------------------------
 Center     Atomic      Atomic             Coordinates (Angstroms)
 Number     Number       Type             X           Y           Z
 ---------------------------------------------------------------------
      1          6           0        3.911000    0.258000    8.229000
      2          8           0        4.064000    1.478000    8.228000
      3          7           0        4.364000   -0.527000    9.189000
      4          6           0        5.067000    0.020000   10.326000
      5          6           0        4.271000    0.817000   11.296000
      6          8           0        4.359000    2.033000   11.367000
      7          7           0        3.492000    0.104000   12.073000
      8          6           0        2.585000    0.677000   13.085000
      9          6           0        3.006000    0.047000   14.361000
     10          8           0        2.958000   -1.169000   14.515000
     11          7           0        3.481000    0.887000   15.262000
     12          6           0        4.163000    0.392000   16.442000
     13          6           0        1.127000    0.330000   12.827000
     14          6           0        0.248000    0.675000   14.038000
     15          6           0        0.674000    1.047000   11.596000
     16          1           0        3.398849   -0.230677    7.426631
     17          1           0        3.640262    0.797316   17.283049
     18          1           0        5.204086    0.636399   16.405818
 ---------------------------------------------------------------------
                    Distance matrix (angstroms):
                    1          2          3          4          5
     1  C    0.000000
     2  O    1.229557   0.000000
     3  N    1.320240   2.243557   0.000000
     4  C    2.406323   2.744700   1.444364   0.000000
     5  C    3.138243   3.145218   2.500887   1.486514   0.000000
     6  O    3.632957   3.201308   3.361147   2.374261   1.221246
     7  N    3.869834   4.122995   3.078311   2.353655   1.311083
     8  C    5.051195   5.139989   4.448963   3.768827   2.462259
     9  C    6.202013   6.385986   5.378032   4.530968   3.404020
    10  O    6.516006   6.910587   5.545744   4.838318   4.003764
    11  N    7.074152   7.082819   6.297651   5.256537   4.044522
    12  C    8.217958   8.286072   7.313752   6.193630   5.164650
    13  C    5.375634   5.576260   4.944458   4.677040   3.530703
    14  C    6.880112   6.997340   6.472948   6.118066   4.870653
    15  C    4.736811   4.798050   4.678378   4.686798   3.616809
    16  H    1.070000   2.001049   2.031076   3.354386   4.102474
    17  H    9.074137   9.090479   8.233544   7.144252   6.020214
    18  H    8.287075   8.299686   7.358105   6.112522   5.197452
                    6          7          8          9         10
     6  O    0.000000
     7  N    2.229611   0.000000
     8  C    2.817328   1.474829   0.000000
     9  C    3.839120   2.339741   1.484021   0.000000
    10  O    4.703776   2.805183   2.364687   1.226652   0.000000
    11  N    4.153941   3.283737   2.363524   1.320237   2.249150
    12  C    5.337314   4.429599   3.720317   2.405875   2.757186
    13  C    3.934162   2.492552   1.520769   2.442107   2.906700
    14  C    5.087114   3.835466   2.523843   2.846977   3.312396
    15  C    3.821500   3.009635   2.450702   3.752792   4.318318
    16  H    4.644635   4.659338   5.788210   6.951037   7.163782
    17  H    6.086307   5.258068   4.330320   3.082797   3.463232
    18  H    5.296636   4.689136   4.229550   3.059453   3.446674
                   11         12         13         14         15
    11  N    0.000000
    12  C    1.450017   0.000000
    13  C    3.432316   4.721161   0.000000
    14  C    3.463439   4.602883   1.535639   0.000000
    15  C    4.620001   6.007151   1.494878   2.506636   0.000000
    16  H    7.915110   9.069098   5.885546   7.379587   5.142072
    17  H    2.029297   1.070000   5.137241   4.696035   6.419002
    18  H    2.083302   1.070000   5.433640   5.492799   6.620017
                   16         17         18
    16  H    0.000000
    17  H    9.912822   0.000000
    18  H    9.199810   1.800270   0.000000
 Stoichiometry    C9H3N3O3(4+)
 Framework group  C1[X(C9H3N3O3)]
 Deg. of freedom    48
 Full point group                 C1      NOp   1
 Largest Abelian subgroup         C1      NOp   1
 Largest concise Abelian subgroup C1      NOp   1
                         Standard orientation:                         
 ---------------------------------------------------------------------
 Center     Atomic      Atomic             Coordinates (Angstroms)
 Number     Number       Type             X           Y           Z
 ---------------------------------------------------------------------
      1          6           0       -3.985065    0.165213    0.456075
      2          8           0       -4.086848    0.082590   -0.766473
      3          7           0       -3.097152   -0.516817    1.155703
      4          6           0       -2.163664   -1.406560    0.505208
      5          6           0       -1.096258   -0.783463   -0.320697
      6          8           0       -1.114008   -0.817508   -1.541339
      7          7           0       -0.135400   -0.220057    0.370870
      8          6           0        1.008741    0.490685   -0.229887
      9          6           0        2.203123   -0.216240    0.295494
     10          8           0        2.432301   -0.267315    1.499464
     11          7           0        2.936883   -0.818856   -0.621826
     12          6           0        3.975696   -1.753843   -0.235541
     13          6           0        1.079067    1.949430    0.194203
     14          6           0        2.424639    2.579632   -0.193698
     15          6           0       -0.069651    2.683180   -0.419570
     16          1           0       -4.634676    0.803170    1.018140
     17          1           0        4.882616   -1.392847   -0.673807
     18          1           0        3.710425   -2.750558   -0.520304
 ---------------------------------------------------------------------
 Rotational constants (GHZ):           1.1423767           0.3543918           0.3115685
 Leave Link  202 at Wed Jan  5 16:30:23 2022, MaxMem=   402653184 cpu:               3.4 elap:               0.5
 (Enter /work/01114/jfonner/frontera/gaussian/16rC.01/g16/l301.exe)
 Standard basis: 6-31G (6D, 7F)
 Ernie: Thresh=  0.10000D-02 Tol=  0.10000D-05 Strict=F.
 There are   141 symmetry adapted cartesian basis functions of A   symmetry.
 There are   141 symmetry adapted basis functions of A   symmetry.
   141 basis functions,   342 primitive gaussians,   141 cartesian basis functions
    49 alpha electrons       49 beta electrons
       nuclear repulsion energy       827.1363316578 Hartrees.
 IExCor= 4639 DFT=T Ex+Corr=wB97XD ExCW=0 ScaHFX=  1.000000
 ScaDFX=  1.000000  1.000000  1.000000  1.000000 ScalE2=  1.000000  1.000000
 IRadAn=      5 IRanWt=     -1 IRanGd=            0 ICorTp=0 IEmpDi=121
 HFx  wShort=  0.000000 wLong=  0.200000 cFull=  0.222036 cShort=  0.000000 cLong=  0.777964
 DFx  wShort=  0.000000 wLong=  0.200000 cFull=  0.000000 cShort=  0.000000 cLong=  1.000000
 NAtoms=   18 NActive=   18 NUniq=   18 SFac= 1.00D+00 NAtFMM=   60 NAOKFM=F Big=F
 Integral buffers will be    131072 words long.
 Raffenetti 2 integral format.
 Two-electron integral symmetry is turned on.
 R6Disp:  Grimme-D2 Dispersion energy=       -0.0083606923 Hartrees.
 Nuclear repulsion after empirical dispersion term =      827.1279709655 Hartrees.
 Leave Link  301 at Wed Jan  5 16:30:24 2022, MaxMem=   402653184 cpu:               3.5 elap:               0.5
 (Enter /work/01114/jfonner/frontera/gaussian/16rC.01/g16/l302.exe)
 NPDir=0 NMtPBC=     1 NCelOv=     1 NCel=       1 NClECP=     1 NCelD=      1
         NCelK=      1 NCelE2=     1 NClLst=     1 CellRange=     0.0.
 One-electron integrals computed using PRISM.
 One-electron integral symmetry used in STVInt
 NBasis=   141 RedAO= T EigKep=  3.28D-03  NBF=   141
 NBsUse=   141 1.00D-06 EigRej= -1.00D+00 NBFU=   141
 Precomputing XC quadrature grid using
 IXCGrd= 4 IRadAn=           5 IRanWt=          -1 IRanGd=           0 AccXCQ= 1.00D-12.
 Generated NRdTot=       0 NPtTot=           0 NUsed=           0 NTot=          32
 NSgBfM=   140   140   140   140   140 MxSgAt=    18 MxSgA2=    18.
 Leave Link  302 at Wed Jan  5 16:30:34 2022, MaxMem=   402653184 cpu:              58.1 elap:              10.1
 (Enter /work/01114/jfonner/frontera/gaussian/16rC.01/g16/l303.exe)
 DipDrv:  MaxL=1.
 Leave Link  303 at Wed Jan  5 16:30:36 2022, MaxMem=   402653184 cpu:               8.7 elap:               1.6
 (Enter /work/01114/jfonner/frontera/gaussian/16rC.01/g16/l401.exe)
 ExpMin= 1.61D-01 ExpMax= 5.48D+03 ExpMxC= 8.25D+02 IAcc=3 IRadAn=         5 AccDes= 0.00D+00
 Harris functional with IExCor= 4639 and IRadAn=       5 diagonalized for initial guess.
 HarFok:  IExCor= 4639 AccDes= 0.00D+00 IRadAn=         5 IDoV= 1 UseB2=F ITyADJ=14
 ICtDFT=  3500011 ScaDFX=  1.000000  1.000000  1.000000  1.000000
 FoFCou: FMM=F IPFlag=           0 FMFlag=      100000 FMFlg1=           0
         NFxFlg=           0 DoJE=T BraDBF=F KetDBF=T FulRan=T
         wScrn=  0.000000 ICntrl=       500 IOpCl=  0 I1Cent=   200000004 NGrid=           0
         NMat0=    1 NMatS0=      1 NMatT0=    0 NMatD0=    1 NMtDS0=    0 NMtDT0=    0
 Petite list used in FoFCou.
 Harris En= -704.420875940261    
 JPrj=0 DoOrth=F DoCkMO=F.
 Leave Link  401 at Wed Jan  5 16:30:49 2022, MaxMem=   402653184 cpu:              77.7 elap:              12.9
 (Enter /work/01114/jfonner/frontera/gaussian/16rC.01/g16/l502.exe)
 Integral symmetry usage will be decided dynamically.
 Closed shell SCF:
 Using DIIS extrapolation, IDIIS=  1040.
 NGot=   402653184 LenX=   402603386 LenY=   402583064
 Requested convergence on RMS density matrix=1.00D-08 within 128 cycles.
 Requested convergence on MAX density matrix=1.00D-06.
 Requested convergence on             energy=1.00D-06.
 No special actions if energy rises.
 Fock matrices will be formed incrementally for  20 cycles.
 Integral accuracy reduced to 1.0D-05 until final iterations.

 Cycle   1  Pass 0  IDiag  1:
 FoFJK:  IHMeth= 1 ICntrl=       0 DoSepK=T KAlg= 0 I1Cent=           0 FoldK=F
 IRaf=         1 NMat=       1 IRICut=       1 DoRegI=T DoRafI=F ISym2E= 0 IDoP0=0 IntGTp=1.
 FoFCou: FMM=F IPFlag=           0 FMFlag=      100000 FMFlg1=           0
         NFxFlg=           0 DoJE=T BraDBF=F KetDBF=F FulRan=T
         wScrn=  0.000000 ICntrl=       500 IOpCl=  0 I1Cent=           0 NGrid=           0
         NMat0=    1 NMatS0=      1 NMatT0=    0 NMatD0=    1 NMtDS0=    0 NMtDT0=    0
 Symmetry not used in FoFCou.
 E= -730.186118547635    
 DIIS: error= 3.35D-02 at cycle   1 NSaved=   1.
 NSaved= 1 IEnMin= 1 EnMin= -730.186118547635     IErMin= 1 ErrMin= 3.35D-02
 ErrMax= 3.35D-02  0.00D+00 EMaxC= 1.00D-01 BMatC= 7.42D-01 BMatP= 7.42D-01
 IDIUse=3 WtCom= 6.65D-01 WtEn= 3.35D-01
 Coeff-Com:  0.100D+01
 Coeff-En:   0.100D+01
 Coeff:      0.100D+01
 Gap=    -0.123 Goal=   None    Shift=    0.000
 GapD=   -0.123 DampG=0.250 DampE=0.500 DampFc=0.2500 IDamp=-1.
 Damping current iteration by 2.50D-01
 RMSDP=1.79D-02 MaxDP=3.79D-01              OVMax= 5.90D-01

 Cycle   2  Pass 0  IDiag  1:
 RMSU=  4.48D-03    CP:  9.98D-01
 E= -730.366106900946     Delta-E=       -0.179988353311 Rises=F Damp=T
 DIIS: error= 2.81D-02 at cycle   2 NSaved=   2.
 NSaved= 2 IEnMin= 2 EnMin= -730.366106900946     IErMin= 2 ErrMin= 2.81D-02
 ErrMax= 2.81D-02  0.00D+00 EMaxC= 1.00D-01 BMatC= 3.18D-01 BMatP= 7.42D-01
 IDIUse=3 WtCom= 7.19D-01 WtEn= 2.81D-01
 Coeff-Com: -0.190D+00 0.119D+01
 Coeff-En:   0.214D+00 0.786D+00
 Coeff:     -0.761D-01 0.108D+01
 Gap=     0.075 Goal=   None    Shift=    0.000
 RMSDP=7.36D-03 MaxDP=2.17D-01 DE=-1.80D-01 OVMax= 6.49D-01

 Cycle   3  Pass 0  IDiag  1:
 RMSU=  7.16D-03    CP:  1.02D+00  1.33D+00
 E= -730.643871912964     Delta-E=       -0.277765012017 Rises=F Damp=F
 DIIS: error= 4.94D-02 at cycle   3 NSaved=   3.
 NSaved= 3 IEnMin= 3 EnMin= -730.643871912964     IErMin= 2 ErrMin= 2.81D-02
 ErrMax= 4.94D-02  0.00D+00 EMaxC= 1.00D-01 BMatC= 4.08D-01 BMatP= 3.18D-01
 IDIUse=2 WtCom= 0.00D+00 WtEn= 1.00D+00
 Coeff-En:   0.000D+00 0.235D+00 0.765D+00
 Coeff:      0.000D+00 0.235D+00 0.765D+00
 Gap=     0.086 Goal=   None    Shift=    0.000
 RMSDP=1.20D-02 MaxDP=4.45D-01 DE=-2.78D-01 OVMax= 8.23D-01

 Cycle   4  Pass 0  IDiag  1:
 RMSU=  6.20D-03    CP:  9.98D-01  3.00D+00  1.27D-01
 E= -727.746445164059     Delta-E=        2.897426748905 Rises=F Damp=F
 DIIS: error= 1.27D-01 at cycle   4 NSaved=   4.
 NSaved= 4 IEnMin= 3 EnMin= -730.643871912964     IErMin= 2 ErrMin= 2.81D-02
 ErrMax= 1.27D-01  0.00D+00 EMaxC= 1.00D-01 BMatC= 2.50D+00 BMatP= 3.18D-01
 IDIUse=2 WtCom= 0.00D+00 WtEn= 1.00D+00
 Coeff-En:   0.000D+00 0.000D+00 0.808D+00 0.192D+00
 Coeff:      0.000D+00 0.000D+00 0.808D+00 0.192D+00
 Gap=     0.208 Goal=   None    Shift=    0.000
 RMSDP=5.80D-03 MaxDP=1.14D-01 DE= 2.90D+00 OVMax= 3.41D-01

 Cycle   5  Pass 0  IDiag  1:
 RMSU=  4.47D-03    CP:  1.01D+00  2.45D+00  3.55D-01  8.13D-01
 E= -729.944233584269     Delta-E=       -2.197788420210 Rises=F Damp=F
 DIIS: error= 7.62D-02 at cycle   5 NSaved=   5.
 NSaved= 5 IEnMin= 3 EnMin= -730.643871912964     IErMin= 2 ErrMin= 2.81D-02
 ErrMax= 7.62D-02  0.00D+00 EMaxC= 1.00D-01 BMatC= 7.45D-01 BMatP= 3.18D-01
 IDIUse=2 WtCom= 0.00D+00 WtEn= 1.00D+00
 Coeff-En:   0.000D+00 0.000D+00 0.663D+00 0.000D+00 0.337D+00
 Coeff:      0.000D+00 0.000D+00 0.663D+00 0.000D+00 0.337D+00
 Gap=    -0.061 Goal=   None    Shift=    0.000
 RMSDP=8.95D-03 MaxDP=2.65D-01 DE=-2.20D+00 OVMax= 9.74D-01

 Cycle   6  Pass 0  IDiag  1:
 RMSU=  4.46D-03    CP:  1.02D+00  1.67D+00  8.28D-01  1.65D-01 -9.23D-05
 E= -730.902112840989     Delta-E=       -0.957879256720 Rises=F Damp=F
 DIIS: error= 2.53D-02 at cycle   6 NSaved=   6.
 NSaved= 6 IEnMin= 6 EnMin= -730.902112840989     IErMin= 6 ErrMin= 2.53D-02
 ErrMax= 2.53D-02  0.00D+00 EMaxC= 1.00D-01 BMatC= 1.19D-01 BMatP= 3.18D-01
 IDIUse=3 WtCom= 7.47D-01 WtEn= 2.53D-01
 EnCoef did     6 forward-backward iterations
 Coeff-Com: -0.138D+00 0.334D+00 0.380D+00-0.748D-01 0.273D+00 0.227D+00
 Coeff-En:   0.000D+00 0.000D+00 0.269D+00 0.000D+00 0.170D+00 0.561D+00
 Coeff:     -0.103D+00 0.249D+00 0.352D+00-0.558D-01 0.247D+00 0.311D+00
 Gap=     0.049 Goal=   None    Shift=    0.000
 RMSDP=3.39D-03 MaxDP=1.34D-01 DE=-9.58D-01 OVMax= 2.62D-01

 Cycle   7  Pass 0  IDiag  1:
 RMSU=  2.16D-03    CP:  1.03D+00  1.35D+00  8.86D-01  1.80D-01 -3.44D-03
                    CP:  5.17D-01
 E= -730.954775739082     Delta-E=       -0.052662898093 Rises=F Damp=F
 DIIS: error= 1.85D-02 at cycle   7 NSaved=   7.
 NSaved= 7 IEnMin= 7 EnMin= -730.954775739082     IErMin= 7 ErrMin= 1.85D-02
 ErrMax= 1.85D-02  0.00D+00 EMaxC= 1.00D-01 BMatC= 7.30D-02 BMatP= 1.19D-01
 IDIUse=3 WtCom= 8.15D-01 WtEn= 1.85D-01
 EnCoef did     2 forward-backward iterations
 Coeff-Com: -0.238D+00 0.374D+00 0.111D+00-0.412D-01 0.114D+00 0.174D+00
 Coeff-Com:  0.506D+00
 Coeff-En:   0.000D+00 0.000D+00 0.000D+00 0.000D+00 0.823D-01 0.298D+00
 Coeff-En:   0.620D+00
 Coeff:     -0.194D+00 0.305D+00 0.902D-01-0.336D-01 0.108D+00 0.197D+00
 Coeff:      0.527D+00
 Gap=     0.046 Goal=   None    Shift=    0.000
 RMSDP=1.92D-03 MaxDP=5.91D-02 DE=-5.27D-02 OVMax= 1.43D-01

 Cycle   8  Pass 0  IDiag  1:
 RMSU=  1.39D-03    CP:  1.03D+00  1.53D+00  8.52D-01  1.86D-01 -6.75D-03
                    CP:  7.25D-01  7.86D-01
 E= -731.020751568927     Delta-E=       -0.065975829845 Rises=F Damp=F
 DIIS: error= 8.42D-03 at cycle   8 NSaved=   8.
 NSaved= 8 IEnMin= 8 EnMin= -731.020751568927     IErMin= 8 ErrMin= 8.42D-03
 ErrMax= 8.42D-03  0.00D+00 EMaxC= 1.00D-01 BMatC= 1.59D-02 BMatP= 7.30D-02
 IDIUse=3 WtCom= 9.16D-01 WtEn= 8.42D-02
 Coeff-Com: -0.160D+00 0.231D+00-0.336D-01-0.157D-01 0.443D-01 0.408D-01
 Coeff-Com:  0.400D+00 0.493D+00
 Coeff-En:   0.000D+00 0.000D+00 0.000D+00 0.000D+00 0.000D+00 0.000D+00
 Coeff-En:   0.000D+00 0.100D+01
 Coeff:     -0.146D+00 0.212D+00-0.307D-01-0.144D-01 0.406D-01 0.374D-01
 Coeff:      0.366D+00 0.535D+00
 Gap=     0.057 Goal=   None    Shift=    0.000
 RMSDP=1.15D-03 MaxDP=2.27D-02 DE=-6.60D-02 OVMax= 6.43D-02

 Cycle   9  Pass 0  IDiag  1:
 RMSU=  7.64D-04    CP:  1.03D+00  1.55D+00  8.35D-01  2.29D-01  2.14D-02
                    CP:  7.31D-01  1.15D+00  9.12D-01
 E= -731.038588011016     Delta-E=       -0.017836442089 Rises=F Damp=F
 DIIS: error= 4.69D-03 at cycle   9 NSaved=   9.
 NSaved= 9 IEnMin= 9 EnMin= -731.038588011016     IErMin= 9 ErrMin= 4.69D-03
 ErrMax= 4.69D-03  0.00D+00 EMaxC= 1.00D-01 BMatC= 2.91D-03 BMatP= 1.59D-02
 IDIUse=3 WtCom= 9.53D-01 WtEn= 4.69D-02
 Coeff-Com: -0.255D-01 0.303D-01-0.292D-01-0.505D-02 0.235D-01-0.245D-01
 Coeff-Com: -0.216D-01 0.266D+00 0.786D+00
 Coeff-En:   0.000D+00 0.000D+00 0.000D+00 0.000D+00 0.000D+00 0.000D+00
 Coeff-En:   0.000D+00 0.000D+00 0.100D+01
 Coeff:     -0.243D-01 0.288D-01-0.278D-01-0.482D-02 0.224D-01-0.233D-01
 Coeff:     -0.206D-01 0.254D+00 0.796D+00
 Gap=     0.075 Goal=   None    Shift=    0.000
 RMSDP=8.87D-04 MaxDP=1.57D-02 DE=-1.78D-02 OVMax= 5.67D-02

 Cycle  10  Pass 0  IDiag  1:
 RMSU=  5.27D-04    CP:  1.03D+00  1.61D+00  8.18D-01  2.54D-01  8.00D-02
                    CP:  7.94D-01  1.20D+00  1.26D+00  1.14D+00
 E= -731.044133151486     Delta-E=       -0.005545140470 Rises=F Damp=F
 DIIS: error= 1.66D-03 at cycle  10 NSaved=  10.
 NSaved=10 IEnMin=10 EnMin= -731.044133151486     IErMin=10 ErrMin= 1.66D-03
 ErrMax= 1.66D-03  0.00D+00 EMaxC= 1.00D-01 BMatC= 1.28D-03 BMatP= 2.91D-03
 IDIUse=3 WtCom= 9.83D-01 WtEn= 1.66D-02
 Coeff-Com:  0.225D-01-0.326D-01 0.889D-02-0.218D-02 0.870D-02-0.150D-01
 Coeff-Com: -0.118D+00-0.386D-02 0.584D+00 0.547D+00
 Coeff-En:   0.000D+00 0.000D+00 0.000D+00 0.000D+00 0.000D+00 0.000D+00
 Coeff-En:   0.000D+00 0.000D+00 0.000D+00 0.100D+01
 Coeff:      0.221D-01-0.320D-01 0.874D-02-0.214D-02 0.856D-02-0.147D-01
 Coeff:     -0.116D+00-0.379D-02 0.574D+00 0.555D+00
 Gap=     0.085 Goal=   None    Shift=    0.000
 RMSDP=4.68D-04 MaxDP=6.90D-03 DE=-5.55D-03 OVMax= 3.97D-02

 Cycle  11  Pass 0  IDiag  1:
 RMSU=  2.51D-04    CP:  1.03D+00  1.61D+00  8.09D-01  2.71D-01  1.24D-01
                    CP:  7.89D-01  1.24D+00  1.35D+00  1.47D+00  1.17D+00
 E= -731.045557885972     Delta-E=       -0.001424734486 Rises=F Damp=F
 DIIS: error= 2.37D-03 at cycle  11 NSaved=  11.
 NSaved=11 IEnMin=11 EnMin= -731.045557885972     IErMin=10 ErrMin= 1.66D-03
 ErrMax= 2.37D-03  0.00D+00 EMaxC= 1.00D-01 BMatC= 9.66D-04 BMatP= 1.28D-03
 IDIUse=3 WtCom= 9.83D-01 WtEn= 1.66D-02
 Coeff-Com:  0.193D-01-0.253D-01 0.155D-01-0.133D-02-0.790D-04 0.387D-02
 Coeff-Com: -0.564D-01-0.145D-01 0.299D+00 0.260D+00 0.499D+00
 Coeff-En:   0.000D+00 0.000D+00 0.000D+00 0.000D+00 0.000D+00 0.000D+00
 Coeff-En:   0.000D+00 0.000D+00 0.000D+00 0.000D+00 0.100D+01
 Coeff:      0.190D-01-0.249D-01 0.152D-01-0.131D-02-0.777D-04 0.380D-02
 Coeff:     -0.555D-01-0.142D-01 0.294D+00 0.256D+00 0.508D+00
 Gap=     0.089 Goal=   None    Shift=    0.000
 RMSDP=2.12D-04 MaxDP=2.56D-03 DE=-1.42D-03 OVMax= 1.32D-02

 Cycle  12  Pass 0  IDiag  1:
 RMSU=  1.20D-04    CP:  1.03D+00  1.61D+00  8.09D-01  2.73D-01  1.49D-01
                    CP:  7.87D-01  1.24D+00  1.38D+00  1.54D+00  1.38D+00
                    CP:  1.19D+00
 E= -731.046238672776     Delta-E=       -0.000680786804 Rises=F Damp=F
 DIIS: error= 2.07D-03 at cycle  12 NSaved=  12.
 NSaved=12 IEnMin=12 EnMin= -731.046238672776     IErMin=10 ErrMin= 1.66D-03
 ErrMax= 2.07D-03  0.00D+00 EMaxC= 1.00D-01 BMatC= 8.31D-04 BMatP= 9.66D-04
 IDIUse=3 WtCom= 9.83D-01 WtEn= 1.66D-02
 Coeff-Com:  0.160D-01-0.217D-01 0.101D-01-0.533D-03-0.255D-02 0.993D-02
 Coeff-Com: -0.249D-01 0.144D-01 0.219D+00 0.763D-01 0.312D+00 0.392D+00
 Coeff-En:   0.000D+00 0.000D+00 0.000D+00 0.000D+00 0.000D+00 0.000D+00
 Coeff-En:   0.000D+00 0.000D+00 0.000D+00 0.000D+00 0.000D+00 0.100D+01
 Coeff:      0.158D-01-0.213D-01 0.988D-02-0.524D-03-0.251D-02 0.977D-02
 Coeff:     -0.245D-01 0.142D-01 0.215D+00 0.751D-01 0.307D+00 0.402D+00
 Gap=     0.090 Goal=   None    Shift=    0.000
 RMSDP=1.14D-04 MaxDP=1.66D-03 DE=-6.81D-04 OVMax= 6.87D-03

 Cycle  13  Pass 0  IDiag  1:
 RMSU=  3.77D-05    CP:  1.02D+00  1.61D+00  8.09D-01  2.75D-01  1.62D-01
                    CP:  7.87D-01  1.23D+00  1.38D+00  1.56D+00  1.48D+00
                    CP:  1.43D+00  1.24D+00
 E= -731.046661590244     Delta-E=       -0.000422917468 Rises=F Damp=F
 DIIS: error= 1.96D-03 at cycle  13 NSaved=  13.
 NSaved=13 IEnMin=13 EnMin= -731.046661590244     IErMin=10 ErrMin= 1.66D-03
 ErrMax= 1.96D-03  0.00D+00 EMaxC= 1.00D-01 BMatC= 6.86D-04 BMatP= 8.31D-04
 IDIUse=3 WtCom= 9.83D-01 WtEn= 1.66D-02
 Coeff-Com:  0.768D-02-0.117D-01-0.109D-02 0.796D-03-0.555D-02 0.133D-01
 Coeff-Com:  0.121D-01 0.592D-01 0.125D+00-0.199D+00-0.320D+00-0.652D+00
 Coeff-Com:  0.197D+01
 Coeff-En:   0.000D+00 0.000D+00 0.000D+00 0.000D+00 0.000D+00 0.000D+00
 Coeff-En:   0.000D+00 0.000D+00 0.000D+00 0.000D+00 0.000D+00 0.000D+00
 Coeff-En:   0.100D+01
 Coeff:      0.755D-02-0.116D-01-0.107D-02 0.783D-03-0.545D-02 0.131D-01
 Coeff:      0.119D-01 0.582D-01 0.123D+00-0.196D+00-0.315D+00-0.641D+00
 Coeff:      0.195D+01
 Gap=     0.093 Goal=   None    Shift=    0.000
 RMSDP=4.00D-04 MaxDP=5.08D-03 DE=-4.23D-04 OVMax= 2.46D-02

 Cycle  14  Pass 0  IDiag  1:
 RMSU=  7.81D-05    CP:  1.02D+00  1.61D+00  8.09D-01  2.80D-01  2.07D-01
                    CP:  7.87D-01  1.21D+00  1.39D+00  1.64D+00  1.84D+00
                    CP:  2.19D+00  2.63D+00  2.94D+00
 E= -731.047970457622     Delta-E=       -0.001308867378 Rises=F Damp=F
 DIIS: error= 1.54D-03 at cycle  14 NSaved=  14.
 NSaved=14 IEnMin=14 EnMin= -731.047970457622     IErMin=14 ErrMin= 1.54D-03
 ErrMax= 1.54D-03  0.00D+00 EMaxC= 1.00D-01 BMatC= 3.96D-04 BMatP= 6.86D-04
 IDIUse=3 WtCom= 9.85D-01 WtEn= 1.54D-02
 Coeff-Com:  0.675D-02-0.107D-01-0.492D-02 0.735D-03-0.197D-02-0.697D-03
 Coeff-Com: -0.197D-01 0.155D-01 0.108D+00-0.600D-01-0.427D+00-0.248D+01
 Coeff-Com:  0.192D+01 0.196D+01
 Coeff-En:   0.000D+00 0.000D+00 0.000D+00 0.000D+00 0.000D+00 0.000D+00
 Coeff-En:   0.000D+00 0.000D+00 0.000D+00 0.000D+00 0.000D+00 0.000D+00
 Coeff-En:   0.000D+00 0.100D+01
 Coeff:      0.665D-02-0.105D-01-0.484D-02 0.723D-03-0.194D-02-0.687D-03
 Coeff:     -0.194D-01 0.153D-01 0.106D+00-0.591D-01-0.421D+00-0.245D+01
 Coeff:      0.189D+01 0.195D+01
 Gap=     0.100 Goal=   None    Shift=    0.000
 RMSDP=8.75D-04 MaxDP=1.14D-02 DE=-1.31D-03 OVMax= 5.09D-02

 Cycle  15  Pass 0  IDiag  1:
 RMSU=  4.60D-04    CP:  1.02D+00  1.60D+00  8.06D-01  2.95D-01  3.04D-01
                    CP:  7.84D-01  1.18D+00  1.41D+00  1.81D+00  2.56D+00
                    CP:  3.00D+00  3.00D+00  3.00D+00  3.00D+00
 E= -731.050038891327     Delta-E=       -0.002068433705 Rises=F Damp=F
 DIIS: error= 6.17D-04 at cycle  15 NSaved=  15.
 NSaved=15 IEnMin=15 EnMin= -731.050038891327     IErMin=15 ErrMin= 6.17D-04
 ErrMax= 6.17D-04  0.00D+00 EMaxC= 1.00D-01 BMatC= 5.65D-05 BMatP= 3.96D-04
 IDIUse=3 WtCom= 9.94D-01 WtEn= 6.17D-03
 Coeff-Com:  0.706D-02-0.102D-01-0.223D-02 0.674D-03-0.678D-03-0.429D-02
 Coeff-Com: -0.210D-01-0.520D-03 0.613D-01 0.643D-01 0.944D-02-0.116D+01
 Coeff-Com:  0.326D+00 0.992D+00 0.742D+00
 Coeff-En:   0.000D+00 0.000D+00 0.000D+00 0.000D+00 0.000D+00 0.000D+00
 Coeff-En:   0.000D+00 0.000D+00 0.000D+00 0.000D+00 0.000D+00 0.000D+00
 Coeff-En:   0.000D+00 0.000D+00 0.100D+01
 Coeff:      0.702D-02-0.101D-01-0.222D-02 0.670D-03-0.674D-03-0.427D-02
 Coeff:     -0.208D-01-0.516D-03 0.609D-01 0.639D-01 0.938D-02-0.116D+01
 Coeff:      0.324D+00 0.986D+00 0.744D+00
 Gap=     0.100 Goal=   None    Shift=    0.000
 RMSDP=2.68D-04 MaxDP=3.63D-03 DE=-2.07D-03 OVMax= 1.68D-02

 Cycle  16  Pass 0  IDiag  1:
 RMSU=  1.05D-04    CP:  1.02D+00  1.59D+00  8.03D-01  3.00D-01  3.28D-01
                    CP:  7.86D-01  1.17D+00  1.42D+00  1.83D+00  2.78D+00
                    CP:  3.00D+00  3.00D+00  3.00D+00  3.00D+00  1.40D+00
 E= -731.050466041985     Delta-E=       -0.000427150658 Rises=F Damp=F
 DIIS: error= 5.45D-04 at cycle  16 NSaved=  16.
 NSaved=16 IEnMin=16 EnMin= -731.050466041985     IErMin=16 ErrMin= 5.45D-04
 ErrMax= 5.45D-04  0.00D+00 EMaxC= 1.00D-01 BMatC= 3.92D-05 BMatP= 5.65D-05
 IDIUse=3 WtCom= 9.95D-01 WtEn= 5.45D-03
 Coeff-Com:  0.363D-02-0.390D-02 0.127D-02 0.190D-03-0.290D-03-0.620D-02
 Coeff-Com: -0.795D-02-0.925D-02-0.970D-02 0.103D+00 0.353D+00 0.370D+00
 Coeff-Com: -0.909D+00-0.379D+00 0.624D+00 0.870D+00
 Coeff-En:   0.000D+00 0.000D+00 0.000D+00 0.000D+00 0.000D+00 0.000D+00
 Coeff-En:   0.000D+00 0.000D+00 0.000D+00 0.000D+00 0.000D+00 0.000D+00
 Coeff-En:   0.000D+00 0.000D+00 0.000D+00 0.100D+01
 Coeff:      0.361D-02-0.388D-02 0.126D-02 0.189D-03-0.288D-03-0.617D-02
 Coeff:     -0.791D-02-0.920D-02-0.964D-02 0.103D+00 0.351D+00 0.368D+00
 Coeff:     -0.904D+00-0.377D+00 0.621D+00 0.870D+00
 Gap=     0.100 Goal=   None    Shift=    0.000
 RMSDP=3.80D-04 MaxDP=5.07D-03 DE=-4.27D-04 OVMax= 2.62D-02

 Cycle  17  Pass 0  IDiag  1:
 RMSU=  7.15D-05    CP:  1.02D+00  1.59D+00  8.00D-01  3.06D-01  3.59D-01
                    CP:  7.87D-01  1.16D+00  1.42D+00  1.84D+00  3.00D+00
                    CP:  3.00D+00  3.00D+00  3.00D+00  3.00D+00  1.99D+00
                    CP:  2.37D+00
 E= -731.050960231145     Delta-E=       -0.000494189160 Rises=F Damp=F
 DIIS: error= 3.53D-04 at cycle  17 NSaved=  17.
 NSaved=17 IEnMin=17 EnMin= -731.050960231145     IErMin=17 ErrMin= 3.53D-04
 ErrMax= 3.53D-04  0.00D+00 EMaxC= 1.00D-01 BMatC= 1.65D-05 BMatP= 3.92D-05
 IDIUse=3 WtCom= 9.96D-01 WtEn= 3.53D-03
 Coeff-Com:  0.181D-03 0.761D-03 0.485D-03-0.671D-04 0.387D-03-0.300D-02
 Coeff-Com:  0.161D-01 0.177D-03-0.614D-01-0.142D-01 0.299D+00 0.103D+01
 Coeff-Com: -0.753D+00-0.109D+01-0.102D+00 0.714D+00 0.972D+00
 Coeff-En:   0.000D+00 0.000D+00 0.000D+00 0.000D+00 0.000D+00 0.000D+00
 Coeff-En:   0.000D+00 0.000D+00 0.000D+00 0.000D+00 0.000D+00 0.000D+00
 Coeff-En:   0.000D+00 0.000D+00 0.000D+00 0.000D+00 0.100D+01
 Coeff:      0.180D-03 0.759D-03 0.483D-03-0.669D-04 0.386D-03-0.299D-02
 Coeff:      0.160D-01 0.177D-03-0.612D-01-0.141D-01 0.298D+00 0.102D+01
 Coeff:     -0.750D+00-0.109D+01-0.102D+00 0.712D+00 0.972D+00
 Gap=     0.099 Goal=   None    Shift=    0.000
 RMSDP=4.11D-04 MaxDP=5.03D-03 DE=-4.94D-04 OVMax= 2.95D-02

 Cycle  18  Pass 0  IDiag  1:
 RMSU=  1.58D-04    CP:  1.02D+00  1.59D+00  7.94D-01  3.14D-01  3.91D-01
                    CP:  7.85D-01  1.16D+00  1.43D+00  1.86D+00  3.00D+00
                    CP:  3.00D+00  3.00D+00  3.00D+00  3.00D+00  2.62D+00
                    CP:  3.00D+00  2.77D+00
 E= -731.051326667999     Delta-E=       -0.000366436854 Rises=F Damp=F
 DIIS: error= 2.86D-04 at cycle  18 NSaved=  18.
 NSaved=18 IEnMin=18 EnMin= -731.051326667999     IErMin=18 ErrMin= 2.86D-04
 ErrMax= 2.86D-04  0.00D+00 EMaxC= 1.00D-01 BMatC= 7.78D-06 BMatP= 1.65D-05
 IDIUse=3 WtCom= 9.97D-01 WtEn= 2.86D-03
 Coeff-Com:  0.192D-03-0.103D-02-0.264D-02-0.194D-03 0.926D-03 0.344D-02
 Coeff-Com:  0.161D-01 0.792D-02-0.458D-01-0.124D+00-0.172D+00-0.158D+00
 Coeff-Com:  0.809D+00-0.102D+00-0.538D+00-0.431D+00 0.246D+00 0.149D+01
 Coeff-En:   0.000D+00 0.000D+00 0.000D+00 0.000D+00 0.000D+00 0.000D+00
 Coeff-En:   0.000D+00 0.000D+00 0.000D+00 0.000D+00 0.000D+00 0.000D+00
 Coeff-En:   0.000D+00 0.000D+00 0.000D+00 0.000D+00 0.000D+00 0.100D+01
 Coeff:      0.191D-03-0.103D-02-0.263D-02-0.194D-03 0.923D-03 0.343D-02
 Coeff:      0.161D-01 0.789D-02-0.457D-01-0.124D+00-0.172D+00-0.158D+00
 Coeff:      0.807D+00-0.101D+00-0.536D+00-0.430D+00 0.245D+00 0.149D+01
 Gap=     0.099 Goal=   None    Shift=    0.000
 RMSDP=4.23D-04 MaxDP=5.45D-03 DE=-3.66D-04 OVMax= 3.04D-02

 Cycle  19  Pass 0  IDiag  1:
 RMSU=  1.92D-04    CP:  1.02D+00  1.58D+00  7.87D-01  3.23D-01  4.21D-01
                    CP:  7.81D-01  1.16D+00  1.44D+00  1.87D+00  3.00D+00
                    CP:  3.00D+00  3.00D+00  3.00D+00  3.00D+00  3.00D+00
                    CP:  3.00D+00  3.00D+00  2.33D+00
 E= -731.051554025181     Delta-E=       -0.000227357182 Rises=F Damp=F
 DIIS: error= 2.49D-04 at cycle  19 NSaved=  19.
 NSaved=19 IEnMin=19 EnMin= -731.051554025181     IErMin=19 ErrMin= 2.49D-04
 ErrMax= 2.49D-04  0.00D+00 EMaxC= 1.00D-01 BMatC= 5.36D-06 BMatP= 7.78D-06
 IDIUse=3 WtCom= 9.98D-01 WtEn= 2.49D-03
 Coeff-Com: -0.528D-03 0.427D-03-0.237D-03-0.260D-04 0.195D-03 0.340D-02
 Coeff-Com:  0.179D-02 0.419D-02-0.203D-01-0.223D-01-0.158D+00-0.357D+00
 Coeff-Com:  0.579D+00 0.216D+00-0.216D+00-0.366D+00-0.141D+00 0.615D+00
 Coeff-Com:  0.861D+00
 Coeff-En:   0.000D+00 0.000D+00 0.000D+00 0.000D+00 0.000D+00 0.000D+00
 Coeff-En:   0.000D+00 0.000D+00 0.000D+00 0.000D+00 0.000D+00 0.000D+00
 Coeff-En:   0.000D+00 0.000D+00 0.000D+00 0.000D+00 0.000D+00 0.000D+00
 Coeff-En:   0.100D+01
 Coeff:     -0.527D-03 0.426D-03-0.237D-03-0.259D-04 0.195D-03 0.339D-02
 Coeff:      0.179D-02 0.418D-02-0.203D-01-0.222D-01-0.158D+00-0.356D+00
 Coeff:      0.578D+00 0.215D+00-0.216D+00-0.365D+00-0.140D+00 0.614D+00
 Coeff:      0.861D+00
 Gap=     0.099 Goal=   None    Shift=    0.000
 RMSDP=1.61D-04 MaxDP=2.39D-03 DE=-2.27D-04 OVMax= 1.15D-02

 Cycle  20  Pass 0  IDiag  1:
 RMSU=  4.74D-05    CP:  1.02D+00  1.58D+00  7.84D-01  3.26D-01  4.31D-01
                    CP:  7.80D-01  1.15D+00  1.45D+00  1.86D+00  3.00D+00
                    CP:  3.00D+00  3.00D+00  3.00D+00  3.00D+00  3.00D+00
                    CP:  3.00D+00  3.00D+00  2.85D+00  1.61D+00
 E= -731.051610928010     Delta-E=       -0.000056902828 Rises=F Damp=F
 DIIS: error= 1.59D-04 at cycle  20 NSaved=  20.
 NSaved=20 IEnMin=20 EnMin= -731.051610928010     IErMin=20 ErrMin= 1.59D-04
 ErrMax= 1.59D-04  0.00D+00 EMaxC= 1.00D-01 BMatC= 1.94D-06 BMatP= 5.36D-06
 IDIUse=3 WtCom= 9.98D-01 WtEn= 1.59D-03
 Coeff-Com: -0.320D-03 0.437D-03 0.400D-03-0.242D-04-0.788D-05 0.131D-02
 Coeff-Com: -0.166D-02-0.138D-02-0.748D-02 0.167D-01-0.384D-01-0.118D+00
 Coeff-Com:  0.959D-01 0.958D-01-0.113D-01-0.603D-01-0.188D-02-0.700D-01
 Coeff-Com: -0.174D+00 0.127D+01
 Coeff-En:   0.000D+00 0.000D+00 0.000D+00 0.000D+00 0.000D+00 0.000D+00
 Coeff-En:   0.000D+00 0.000D+00 0.000D+00 0.000D+00 0.000D+00 0.000D+00
 Coeff-En:   0.000D+00 0.000D+00 0.000D+00 0.000D+00 0.000D+00 0.000D+00
 Coeff-En:   0.000D+00 0.100D+01
 Coeff:     -0.319D-03 0.436D-03 0.399D-03-0.242D-04-0.787D-05 0.131D-02
 Coeff:     -0.166D-02-0.137D-02-0.747D-02 0.167D-01-0.383D-01-0.117D+00
 Coeff:      0.957D-01 0.956D-01-0.113D-01-0.602D-01-0.188D-02-0.699D-01
 Coeff:     -0.174D+00 0.127D+01
 Gap=     0.099 Goal=   None    Shift=    0.000
 RMSDP=1.17D-04 MaxDP=1.86D-03 DE=-5.69D-05 OVMax= 8.42D-03

 Cycle  21  Pass 0  IDiag  1:
 Restarting incremental Fock formation.
 E= -731.051637321488     Delta-E=       -0.000026393479 Rises=F Damp=F
 DIIS: error= 7.74D-05 at cycle  21 NSaved=  20.
 NSaved=20 IEnMin=20 EnMin= -731.051637321488     IErMin=20 ErrMin= 7.74D-05
 ErrMax= 7.74D-05  0.00D+00 EMaxC= 1.00D-01 BMatC= 8.14D-07 BMatP= 1.94D-06
 IDIUse=1 WtCom= 1.00D+00 WtEn= 0.00D+00
 Coeff-Com:  0.293D-03-0.506D-03-0.246D-03-0.158D-04-0.388D-04-0.729D-03
 Coeff-Com: -0.227D-02 0.785D-03 0.131D-01 0.102D-01 0.241D-02-0.768D-01
 Coeff-Com:  0.382D-01 0.467D-01 0.692D-01 0.920D-02-0.269D+00-0.549D+00
 Coeff-Com:  0.680D+00 0.103D+01
 Coeff:      0.293D-03-0.506D-03-0.246D-03-0.158D-04-0.388D-04-0.729D-03
 Coeff:     -0.227D-02 0.785D-03 0.131D-01 0.102D-01 0.241D-02-0.768D-01
 Coeff:      0.382D-01 0.467D-01 0.692D-01 0.920D-02-0.269D+00-0.549D+00
 Coeff:      0.680D+00 0.103D+01
 Gap=     0.098 Goal=   None    Shift=    0.000
 RMSDP=1.27D-04 MaxDP=2.07D-03 DE=-2.64D-05 OVMax= 9.49D-03

 Cycle  22  Pass 0  IDiag  1:
 RMSU=  1.27D-04    CP:  1.00D+00
 E= -731.051655980653     Delta-E=       -0.000018659164 Rises=F Damp=F
 DIIS: error= 4.49D-05 at cycle  22 NSaved=  20.
 NSaved=20 IEnMin=20 EnMin= -731.051655980653     IErMin=20 ErrMin= 4.49D-05
 ErrMax= 4.49D-05  0.00D+00 EMaxC= 1.00D-01 BMatC= 1.57D-07 BMatP= 8.14D-07
 IDIUse=1 WtCom= 1.00D+00 WtEn= 0.00D+00
 Coeff-Com:  0.822D-04-0.930D-04 0.696D-04-0.373D-03-0.103D-02 0.131D-02
 Coeff-Com:  0.148D-02 0.375D-02-0.212D-01-0.898D-01 0.984D-01 0.464D-01
 Coeff-Com: -0.260D-01-0.399D-01-0.117D+00 0.182D+00 0.676D+00-0.767D+00
 Coeff-Com: -0.103D+01 0.208D+01
 Coeff:      0.822D-04-0.930D-04 0.696D-04-0.373D-03-0.103D-02 0.131D-02
 Coeff:      0.148D-02 0.375D-02-0.212D-01-0.898D-01 0.984D-01 0.464D-01
 Coeff:     -0.260D-01-0.399D-01-0.117D+00 0.182D+00 0.676D+00-0.767D+00
 Coeff:     -0.103D+01 0.208D+01
 Gap=     0.098 Goal=   None    Shift=    0.000
 RMSDP=6.49D-05 MaxDP=1.14D-03 DE=-1.87D-05 OVMax= 5.58D-03

 Cycle  23  Pass 0  IDiag  1:
 RMSU=  1.60D-05    CP:  1.00D+00  1.49D+00
 E= -731.051661556700     Delta-E=       -0.000005576047 Rises=F Damp=F
 DIIS: error= 3.50D-05 at cycle  23 NSaved=  20.
 NSaved=20 IEnMin=20 EnMin= -731.051661556700     IErMin=20 ErrMin= 3.50D-05
 ErrMax= 3.50D-05  0.00D+00 EMaxC= 1.00D-01 BMatC= 6.68D-08 BMatP= 1.57D-07
 IDIUse=1 WtCom= 1.00D+00 WtEn= 0.00D+00
 Coeff-Com:  0.162D-04 0.109D-03 0.118D-03-0.454D-03 0.902D-03-0.114D-03
 Coeff-Com:  0.247D-02-0.170D-01-0.466D-01 0.644D-01 0.221D-01-0.297D-01
 Coeff-Com: -0.447D-01-0.484D-01 0.154D+00 0.418D+00-0.408D+00-0.666D+00
 Coeff-Com:  0.427D+00 0.117D+01
 Coeff:      0.162D-04 0.109D-03 0.118D-03-0.454D-03 0.902D-03-0.114D-03
 Coeff:      0.247D-02-0.170D-01-0.466D-01 0.644D-01 0.221D-01-0.297D-01
 Coeff:     -0.447D-01-0.484D-01 0.154D+00 0.418D+00-0.408D+00-0.666D+00
 Coeff:      0.427D+00 0.117D+01
 Gap=     0.098 Goal=   None    Shift=    0.000
 RMSDP=2.65D-05 MaxDP=4.76D-04 DE=-5.58D-06 OVMax= 2.38D-03

 Cycle  24  Pass 0  IDiag  1:
 RMSU=  3.91D-06    CP:  1.00D+00  1.67D+00  1.84D+00
 E= -731.051663121782     Delta-E=       -0.000001565082 Rises=F Damp=F
 DIIS: error= 3.45D-05 at cycle  24 NSaved=  20.
 NSaved=20 IEnMin=20 EnMin= -731.051663121782     IErMin=20 ErrMin= 3.45D-05
 ErrMax= 3.45D-05  0.00D+00 EMaxC= 1.00D-01 BMatC= 9.61D-08 BMatP= 6.68D-08
 IDIUse=1 WtCom= 1.00D+00 WtEn= 0.00D+00
 Coeff-Com:  0.394D-04 0.232D-03 0.436D-03-0.459D-03-0.121D-02 0.468D-02
 Coeff-Com:  0.133D-01 0.567D-01-0.631D-01-0.401D-01 0.321D-02 0.258D-01
 Coeff-Com:  0.748D-01-0.585D-01-0.325D+00 0.298D+00 0.446D+00-0.940D+00
 Coeff-Com:  0.287D+00 0.122D+01
 Coeff:      0.394D-04 0.232D-03 0.436D-03-0.459D-03-0.121D-02 0.468D-02
 Coeff:      0.133D-01 0.567D-01-0.631D-01-0.401D-01 0.321D-02 0.258D-01
 Coeff:      0.748D-01-0.585D-01-0.325D+00 0.298D+00 0.446D+00-0.940D+00
 Coeff:      0.287D+00 0.122D+01
 Gap=     0.098 Goal=   None    Shift=    0.000
 RMSDP=1.88D-05 MaxDP=3.23D-04 DE=-1.57D-06 OVMax= 1.58D-03

 Cycle  25  Pass 0  IDiag  1:
 RMSU=  4.23D-06    CP:  1.00D+00  1.77D+00  2.59D+00  1.98D+00
 E= -731.051664031283     Delta-E=       -0.000000909501 Rises=F Damp=F
 DIIS: error= 1.86D-05 at cycle  25 NSaved=  20.
 NSaved=20 IEnMin=20 EnMin= -731.051664031283     IErMin=20 ErrMin= 1.86D-05
 ErrMax= 1.86D-05  0.00D+00 EMaxC= 1.00D-01 BMatC= 1.90D-08 BMatP= 6.68D-08
 IDIUse=1 WtCom= 1.00D+00 WtEn= 0.00D+00
 Coeff-Com: -0.158D-04 0.105D-03-0.104D-03-0.236D-03-0.108D-02-0.229D-02
 Coeff-Com: -0.420D-02 0.545D-02 0.584D-02 0.173D-03-0.500D-02 0.167D-01
 Coeff-Com: -0.247D-01-0.150D+00 0.153D+00 0.236D+00-0.207D+00-0.407D+00
 Coeff-Com: -0.266D+00 0.165D+01
 Coeff:     -0.158D-04 0.105D-03-0.104D-03-0.236D-03-0.108D-02-0.229D-02
 Coeff:     -0.420D-02 0.545D-02 0.584D-02 0.173D-03-0.500D-02 0.167D-01
 Coeff:     -0.247D-01-0.150D+00 0.153D+00 0.236D+00-0.207D+00-0.407D+00
 Coeff:     -0.266D+00 0.165D+01
 Gap=     0.098 Goal=   None    Shift=    0.000
 RMSDP=1.67D-05 MaxDP=2.72D-04 DE=-9.10D-07 OVMax= 1.31D-03

 Cycle  26  Pass 0  IDiag  1:
 RMSU=  5.13D-06    CP:  1.00D+00  1.86D+00  3.00D+00  3.00D+00  2.01D+00
 E= -731.051664497651     Delta-E=       -0.000000466368 Rises=F Damp=F
 DIIS: error= 6.64D-06 at cycle  26 NSaved=  20.
 NSaved=20 IEnMin=20 EnMin= -731.051664497651     IErMin=20 ErrMin= 6.64D-06
 ErrMax= 6.64D-06  0.00D+00 EMaxC= 1.00D-01 BMatC= 5.75D-09 BMatP= 1.90D-08
 IDIUse=1 WtCom= 1.00D+00 WtEn= 0.00D+00
 Coeff-Com:  0.228D-04 0.149D-03-0.284D-03-0.148D-02-0.644D-02-0.168D-01
 Coeff-Com:  0.212D-01 0.158D-01-0.198D-02-0.128D-01-0.105D-01 0.118D-02
 Coeff-Com:  0.281D-02 0.319D-01 0.125D-01 0.389D-01-0.205D+00-0.348D+00
 Coeff-Com:  0.599D+00 0.879D+00
 Coeff:      0.228D-04 0.149D-03-0.284D-03-0.148D-02-0.644D-02-0.168D-01
 Coeff:      0.212D-01 0.158D-01-0.198D-02-0.128D-01-0.105D-01 0.118D-02
 Coeff:      0.281D-02 0.319D-01 0.125D-01 0.389D-01-0.205D+00-0.348D+00
 Coeff:      0.599D+00 0.879D+00
 Gap=     0.098 Goal=   None    Shift=    0.000
 RMSDP=5.95D-06 MaxDP=8.57D-05 DE=-4.66D-07 OVMax= 4.30D-04

 Initial convergence to 1.0D-05 achieved.  Increase integral accuracy.
 Cycle  27  Pass 1  IDiag  1:
 E= -731.051690854459     Delta-E=       -0.000026356808 Rises=F Damp=F
 DIIS: error= 7.85D-06 at cycle   1 NSaved=   1.
 NSaved= 1 IEnMin= 1 EnMin= -731.051690854459     IErMin= 1 ErrMin= 7.85D-06
 ErrMax= 7.85D-06  0.00D+00 EMaxC= 1.00D-01 BMatC= 3.11D-08 BMatP= 3.11D-08
 IDIUse=1 WtCom= 1.00D+00 WtEn= 0.00D+00
 Coeff-Com:  0.100D+01
 Coeff:      0.100D+01
 Gap=     0.098 Goal=   None    Shift=    0.000
 RMSDP=5.95D-06 MaxDP=8.57D-05 DE=-2.64D-05 OVMax= 8.31D-05

 Cycle  28  Pass 1  IDiag  1:
 RMSU=  5.75D-06    CP:  1.00D+00
 E= -731.051690908692     Delta-E=       -0.000000054234 Rises=F Damp=F
 DIIS: error= 5.19D-06 at cycle   2 NSaved=   2.
 NSaved= 2 IEnMin= 2 EnMin= -731.051690908692     IErMin= 2 ErrMin= 5.19D-06
 ErrMax= 5.19D-06  0.00D+00 EMaxC= 1.00D-01 BMatC= 4.91D-09 BMatP= 3.11D-08
 IDIUse=1 WtCom= 1.00D+00 WtEn= 0.00D+00
 Coeff-Com:  0.100D+00 0.900D+00
 Coeff:      0.100D+00 0.900D+00
 Gap=     0.098 Goal=   None    Shift=    0.000
 RMSDP=1.54D-06 MaxDP=3.79D-05 DE=-5.42D-08 OVMax= 8.89D-05

 Cycle  29  Pass 1  IDiag  1:
 RMSU=  1.41D-06    CP:  1.00D+00  1.10D+00
 E= -731.051690911127     Delta-E=       -0.000000002434 Rises=F Damp=F
 DIIS: error= 1.05D-05 at cycle   3 NSaved=   3.
 NSaved= 3 IEnMin= 3 EnMin= -731.051690911127     IErMin= 2 ErrMin= 5.19D-06
 ErrMax= 1.05D-05  0.00D+00 EMaxC= 1.00D-01 BMatC= 1.33D-08 BMatP= 4.91D-09
 IDIUse=1 WtCom= 1.00D+00 WtEn= 0.00D+00
 Coeff-Com: -0.680D-01 0.677D+00 0.391D+00
 Coeff:     -0.680D-01 0.677D+00 0.391D+00
 Gap=     0.098 Goal=   None    Shift=    0.000
 RMSDP=9.11D-07 MaxDP=1.96D-05 DE=-2.43D-09 OVMax= 4.15D-05

 Cycle  30  Pass 1  IDiag  1:
 RMSU=  8.14D-07    CP:  1.00D+00  1.15D+00  7.64D-01
 E= -731.051690925368     Delta-E=       -0.000000014241 Rises=F Damp=F
 DIIS: error= 3.88D-06 at cycle   4 NSaved=   4.
 NSaved= 4 IEnMin= 4 EnMin= -731.051690925368     IErMin= 4 ErrMin= 3.88D-06
 ErrMax= 3.88D-06  0.00D+00 EMaxC= 1.00D-01 BMatC= 1.59D-09 BMatP= 4.91D-09
 IDIUse=1 WtCom= 1.00D+00 WtEn= 0.00D+00
 Coeff-Com: -0.621D-01 0.374D+00 0.262D+00 0.427D+00
 Coeff:     -0.621D-01 0.374D+00 0.262D+00 0.427D+00
 Gap=     0.098 Goal=   None    Shift=    0.000
 RMSDP=5.13D-07 MaxDP=1.05D-05 DE=-1.42D-08 OVMax= 4.03D-05

 Cycle  31  Pass 1  IDiag  1:
 RMSU=  4.38D-07    CP:  1.00D+00  1.17D+00  9.24D-01  1.07D+00
 E= -731.051690929046     Delta-E=       -0.000000003678 Rises=F Damp=F
 DIIS: error= 3.43D-06 at cycle   5 NSaved=   5.
 NSaved= 5 IEnMin= 5 EnMin= -731.051690929046     IErMin= 5 ErrMin= 3.43D-06
 ErrMax= 3.43D-06  0.00D+00 EMaxC= 1.00D-01 BMatC= 6.69D-10 BMatP= 1.59D-09
 IDIUse=1 WtCom= 1.00D+00 WtEn= 0.00D+00
 Coeff-Com: -0.228D-01 0.292D-01 0.209D-01 0.340D+00 0.633D+00
 Coeff:     -0.228D-01 0.292D-01 0.209D-01 0.340D+00 0.633D+00
 Gap=     0.098 Goal=   None    Shift=    0.000
 RMSDP=6.29D-07 MaxDP=1.64D-05 DE=-3.68D-09 OVMax= 4.93D-05

 Cycle  32  Pass 1  IDiag  1:
 RMSU=  3.23D-07    CP:  1.00D+00  1.19D+00  1.12D+00  1.60D+00  1.13D+00
 E= -731.051690932672     Delta-E=       -0.000000003626 Rises=F Damp=F
 DIIS: error= 2.79D-06 at cycle   6 NSaved=   6.
 NSaved= 6 IEnMin= 6 EnMin= -731.051690932672     IErMin= 6 ErrMin= 2.79D-06
 ErrMax= 2.79D-06  0.00D+00 EMaxC= 1.00D-01 BMatC= 7.50D-10 BMatP= 6.69D-10
 IDIUse=1 WtCom= 1.00D+00 WtEn= 0.00D+00
 Coeff-Com:  0.309D-01-0.306D+00-0.250D+00 0.330D-01 0.861D+00 0.631D+00
 Coeff:      0.309D-01-0.306D+00-0.250D+00 0.330D-01 0.861D+00 0.631D+00
 Gap=     0.098 Goal=   None    Shift=    0.000
 RMSDP=9.10D-07 MaxDP=1.62D-05 DE=-3.63D-09 OVMax= 7.15D-05

 Cycle  33  Pass 1  IDiag  1:
 RMSU=  2.42D-07    CP:  1.00D+00  1.23D+00  1.45D+00  2.33D+00  2.03D+00
                    CP:  1.04D+00
 E= -731.051690937905     Delta-E=       -0.000000005234 Rises=F Damp=F
 DIIS: error= 1.96D-06 at cycle   7 NSaved=   7.
 NSaved= 7 IEnMin= 7 EnMin= -731.051690937905     IErMin= 7 ErrMin= 1.96D-06
 ErrMax= 1.96D-06  0.00D+00 EMaxC= 1.00D-01 BMatC= 2.31D-10 BMatP= 6.69D-10
 IDIUse=1 WtCom= 1.00D+00 WtEn= 0.00D+00
 Coeff-Com:  0.336D-01-0.262D+00-0.230D+00-0.893D-01 0.491D+00 0.473D+00
 Coeff-Com:  0.583D+00
 Coeff:      0.336D-01-0.262D+00-0.230D+00-0.893D-01 0.491D+00 0.473D+00
 Coeff:      0.583D+00
 Gap=     0.098 Goal=   None    Shift=    0.000
 RMSDP=5.85D-07 MaxDP=1.03D-05 DE=-5.23D-09 OVMax= 4.88D-05

 Cycle  34  Pass 1  IDiag  1:
 RMSU=  1.18D-07    CP:  1.00D+00  1.25D+00  1.65D+00  2.79D+00  2.56D+00
                    CP:  1.47D+00  1.45D+00
 E= -731.051690940351     Delta-E=       -0.000000002446 Rises=F Damp=F
 DIIS: error= 1.57D-06 at cycle   8 NSaved=   8.
 NSaved= 8 IEnMin= 8 EnMin= -731.051690940351     IErMin= 8 ErrMin= 1.57D-06
 ErrMax= 1.57D-06  0.00D+00 EMaxC= 1.00D-01 BMatC= 8.99D-11 BMatP= 2.31D-10
 IDIUse=1 WtCom= 1.00D+00 WtEn= 0.00D+00
 Coeff-Com: -0.418D-02 0.119D+00 0.483D-01-0.115D+00-0.533D+00-0.300D+00
 Coeff-Com:  0.415D+00 0.137D+01
 Coeff:     -0.418D-02 0.119D+00 0.483D-01-0.115D+00-0.533D+00-0.300D+00
 Coeff:      0.415D+00 0.137D+01
 Gap=     0.098 Goal=   None    Shift=    0.000
 RMSDP=1.18D-06 MaxDP=2.16D-05 DE=-2.45D-09 OVMax= 9.85D-05

 Cycle  35  Pass 1  IDiag  1:
 RMSU=  6.58D-07    CP:  1.00D+00  1.30D+00  2.04D+00  3.00D+00  3.00D+00
                    CP:  2.30D+00  2.96D+00  1.84D+00
 E= -731.051690943519     Delta-E=       -0.000000003168 Rises=F Damp=F
 DIIS: error= 8.37D-07 at cycle   9 NSaved=   9.
 NSaved= 9 IEnMin= 9 EnMin= -731.051690943519     IErMin= 9 ErrMin= 8.37D-07
 ErrMax= 8.37D-07  0.00D+00 EMaxC= 1.00D-01 BMatC= 5.16D-11 BMatP= 8.99D-11
 IDIUse=1 WtCom= 1.00D+00 WtEn= 0.00D+00
 Coeff-Com: -0.121D-01 0.137D+00 0.806D-01-0.249D-01-0.416D+00-0.295D+00
 Coeff-Com: -0.420D-01 0.842D+00 0.729D+00
 Coeff:     -0.121D-01 0.137D+00 0.806D-01-0.249D-01-0.416D+00-0.295D+00
 Coeff:     -0.420D-01 0.842D+00 0.729D+00
 Gap=     0.098 Goal=   None    Shift=    0.000
 RMSDP=4.74D-07 MaxDP=9.05D-06 DE=-3.17D-09 OVMax= 3.93D-05

 Cycle  36  Pass 1  IDiag  1:
 RMSU=  1.66D-07    CP:  1.00D+00  1.31D+00  2.19D+00  3.00D+00  3.00D+00
                    CP:  2.72D+00  3.00D+00  2.60D+00  1.51D+00
 E= -731.051690944267     Delta-E=       -0.000000000748 Rises=F Damp=F
 DIIS: error= 5.11D-07 at cycle  10 NSaved=  10.
 NSaved=10 IEnMin=10 EnMin= -731.051690944267     IErMin=10 ErrMin= 5.11D-07
 ErrMax= 5.11D-07  0.00D+00 EMaxC= 1.00D-01 BMatC= 1.66D-11 BMatP= 5.16D-11
 IDIUse=1 WtCom= 1.00D+00 WtEn= 0.00D+00
 Coeff-Com: -0.134D-02-0.185D-01-0.111D-01 0.580D-01 0.184D+00 0.253D-01
 Coeff-Com: -0.275D+00-0.380D+00 0.166D+00 0.125D+01
 Coeff:     -0.134D-02-0.185D-01-0.111D-01 0.580D-01 0.184D+00 0.253D-01
 Coeff:     -0.275D+00-0.380D+00 0.166D+00 0.125D+01
 Gap=     0.098 Goal=   None    Shift=    0.000
 RMSDP=4.11D-07 MaxDP=6.64D-06 DE=-7.48D-10 OVMax= 2.99D-05

 Cycle  37  Pass 1  IDiag  1:
 RMSU=  1.15D-07    CP:  1.00D+00  1.33D+00  2.30D+00  3.00D+00  3.00D+00
                    CP:  3.00D+00  3.00D+00  3.00D+00  1.92D+00  2.21D+00
 E= -731.051690944703     Delta-E=       -0.000000000436 Rises=F Damp=F
 DIIS: error= 2.99D-07 at cycle  11 NSaved=  11.
 NSaved=11 IEnMin=11 EnMin= -731.051690944703     IErMin=11 ErrMin= 2.99D-07
 ErrMax= 2.99D-07  0.00D+00 EMaxC= 1.00D-01 BMatC= 1.14D-11 BMatP= 1.66D-11
 IDIUse=1 WtCom= 1.00D+00 WtEn= 0.00D+00
 Coeff-Com:  0.321D-02-0.581D-01-0.386D-01 0.533D-01 0.264D+00 0.118D+00
 Coeff-Com: -0.171D+00-0.518D+00-0.205D+00 0.883D+00 0.670D+00
 Coeff:      0.321D-02-0.581D-01-0.386D-01 0.533D-01 0.264D+00 0.118D+00
 Coeff:     -0.171D+00-0.518D+00-0.205D+00 0.883D+00 0.670D+00
 Gap=     0.098 Goal=   None    Shift=    0.000
 RMSDP=1.82D-07 MaxDP=2.82D-06 DE=-4.36D-10 OVMax= 1.44D-05

 Cycle  38  Pass 1  IDiag  1:
 RMSU=  5.84D-08    CP:  1.00D+00  1.33D+00  2.34D+00  3.00D+00  3.00D+00
                    CP:  3.00D+00  3.00D+00  3.00D+00  2.07D+00  2.80D+00
                    CP:  1.72D+00
 E= -731.051690944850     Delta-E=       -0.000000000147 Rises=F Damp=F
 DIIS: error= 2.81D-07 at cycle  12 NSaved=  12.
 NSaved=12 IEnMin=12 EnMin= -731.051690944850     IErMin=12 ErrMin= 2.81D-07
 ErrMax= 2.81D-07  0.00D+00 EMaxC= 1.00D-01 BMatC= 5.98D-12 BMatP= 1.14D-11
 IDIUse=1 WtCom= 1.00D+00 WtEn= 0.00D+00
 Coeff-Com:  0.316D-02-0.343D-01-0.268D-01 0.128D-01 0.856D-01 0.792D-01
 Coeff-Com:  0.732D-02-0.154D+00-0.270D+00 0.737D-01 0.429D+00 0.795D+00
 Coeff:      0.316D-02-0.343D-01-0.268D-01 0.128D-01 0.856D-01 0.792D-01
 Coeff:      0.732D-02-0.154D+00-0.270D+00 0.737D-01 0.429D+00 0.795D+00
 Gap=     0.098 Goal=   None    Shift=    0.000
 RMSDP=1.43D-07 MaxDP=2.41D-06 DE=-1.47D-10 OVMax= 1.20D-05

 Cycle  39  Pass 1  IDiag  1:
 RMSU=  5.40D-08    CP:  1.00D+00  1.33D+00  2.36D+00  3.00D+00  3.00D+00
                    CP:  3.00D+00  3.00D+00  3.00D+00  2.18D+00  3.00D+00
                    CP:  2.37D+00  1.72D+00
 E= -731.051690944938     Delta-E=       -0.000000000088 Rises=F Damp=F
 DIIS: error= 2.11D-07 at cycle  13 NSaved=  13.
 NSaved=13 IEnMin=13 EnMin= -731.051690944938     IErMin=13 ErrMin= 2.11D-07
 ErrMax= 2.11D-07  0.00D+00 EMaxC= 1.00D-01 BMatC= 3.10D-12 BMatP= 5.98D-12
 IDIUse=1 WtCom= 1.00D+00 WtEn= 0.00D+00
 Coeff-Com:  0.324D-04 0.159D-01 0.526D-02-0.210D-01-0.121D+00-0.223D-01
 Coeff-Com:  0.121D+00 0.254D+00-0.105D+00-0.489D+00-0.151D+00 0.607D+00
 Coeff-Com:  0.907D+00
 Coeff:      0.324D-04 0.159D-01 0.526D-02-0.210D-01-0.121D+00-0.223D-01
 Coeff:      0.121D+00 0.254D+00-0.105D+00-0.489D+00-0.151D+00 0.607D+00
 Coeff:      0.907D+00
 Gap=     0.098 Goal=   None    Shift=    0.000
 RMSDP=1.30D-07 MaxDP=2.28D-06 DE=-8.75D-11 OVMax= 1.11D-05

 Cycle  40  Pass 1  IDiag  1:
 RMSU=  3.52D-08    CP:  1.00D+00  1.33D+00  2.38D+00  3.00D+00  3.00D+00
                    CP:  3.00D+00  3.00D+00  3.00D+00  2.25D+00  3.00D+00
                    CP:  3.00D+00  2.47D+00  2.32D+00
 E= -731.051690945008     Delta-E=       -0.000000000070 Rises=F Damp=F
 DIIS: error= 1.64D-07 at cycle  14 NSaved=  14.
 NSaved=14 IEnMin=14 EnMin= -731.051690945008     IErMin=14 ErrMin= 1.64D-07
 ErrMax= 1.64D-07  0.00D+00 EMaxC= 1.00D-01 BMatC= 1.39D-12 BMatP= 3.10D-12
 IDIUse=1 WtCom= 1.00D+00 WtEn= 0.00D+00
 Coeff-Com: -0.903D-03 0.991D-02 0.661D-02-0.169D-02-0.203D-01-0.410D-01
 Coeff-Com:  0.666D-02 0.495D-01 0.645D-01 0.574D-01-0.222D+00-0.315D+00
 Coeff-Com: -0.773D-01 0.148D+01
 Coeff:     -0.903D-03 0.991D-02 0.661D-02-0.169D-02-0.203D-01-0.410D-01
 Coeff:      0.666D-02 0.495D-01 0.645D-01 0.574D-01-0.222D+00-0.315D+00
 Coeff:     -0.773D-01 0.148D+01
 Gap=     0.098 Goal=   None    Shift=    0.000
 RMSDP=1.27D-07 MaxDP=2.20D-06 DE=-6.98D-11 OVMax= 9.81D-06

 Cycle  41  Pass 1  IDiag  1:
 RMSU=  7.86D-08    CP:  1.00D+00  1.33D+00  2.39D+00  3.00D+00  3.00D+00
                    CP:  3.00D+00  3.00D+00  3.00D+00  2.29D+00  3.00D+00
                    CP:  3.00D+00  3.00D+00  3.00D+00  2.64D+00
 E= -731.051690945063     Delta-E=       -0.000000000055 Rises=F Damp=F
 DIIS: error= 1.39D-07 at cycle  15 NSaved=  15.
 NSaved=15 IEnMin=15 EnMin= -731.051690945063     IErMin=15 ErrMin= 1.39D-07
 ErrMax= 1.39D-07  0.00D+00 EMaxC= 1.00D-01 BMatC= 1.53D-12 BMatP= 1.39D-12
 IDIUse=1 WtCom= 1.00D+00 WtEn= 0.00D+00
 Coeff-Com: -0.614D-03-0.619D-03 0.892D-03 0.119D-01 0.415D-01-0.207D-01
 Coeff-Com: -0.462D-01-0.860D-01 0.764D-01 0.304D+00-0.115D+00-0.488D+00
 Coeff-Com: -0.546D+00 0.124D+01 0.627D+00
 Coeff:     -0.614D-03-0.619D-03 0.892D-03 0.119D-01 0.415D-01-0.207D-01
 Coeff:     -0.462D-01-0.860D-01 0.764D-01 0.304D+00-0.115D+00-0.488D+00
 Coeff:     -0.546D+00 0.124D+01 0.627D+00
 Gap=     0.098 Goal=   None    Shift=    0.000
 RMSDP=7.74D-08 MaxDP=1.28D-06 DE=-5.50D-11 OVMax= 5.93D-06

 Cycle  42  Pass 1  IDiag  1:
 RMSU=  3.83D-08    CP:  1.00D+00  1.33D+00  2.39D+00  3.00D+00  3.00D+00
                    CP:  3.00D+00  3.00D+00  3.00D+00  2.32D+00  3.00D+00
                    CP:  3.00D+00  3.00D+00  3.00D+00  3.00D+00  1.75D+00
 E= -731.051690945094     Delta-E=       -0.000000000031 Rises=F Damp=F
 DIIS: error= 1.25D-07 at cycle  16 NSaved=  16.
 NSaved=16 IEnMin=16 EnMin= -731.051690945094     IErMin=16 ErrMin= 1.25D-07
 ErrMax= 1.25D-07  0.00D+00 EMaxC= 1.00D-01 BMatC= 9.35D-13 BMatP= 1.39D-12
 IDIUse=1 WtCom= 1.00D+00 WtEn= 0.00D+00
 Coeff-Com:  0.469D-03-0.118D-01-0.844D-02 0.193D-01 0.561D-01 0.253D-01
 Coeff-Com: -0.460D-01-0.140D+00-0.197D-01 0.268D+00 0.104D+00-0.443D-01
 Coeff-Com: -0.491D+00-0.198D+00-0.214D+00 0.170D+01
 Coeff:      0.469D-03-0.118D-01-0.844D-02 0.193D-01 0.561D-01 0.253D-01
 Coeff:     -0.460D-01-0.140D+00-0.197D-01 0.268D+00 0.104D+00-0.443D-01
 Coeff:     -0.491D+00-0.198D+00-0.214D+00 0.170D+01
 Gap=     0.098 Goal=   None    Shift=    0.000
 RMSDP=1.30D-07 MaxDP=1.95D-06 DE=-3.12D-11 OVMax= 1.02D-05

 Cycle  43  Pass 1  IDiag  1:
 RMSU=  2.78D-08    CP:  1.00D+00  1.33D+00  2.40D+00  3.00D+00  3.00D+00
                    CP:  3.00D+00  3.00D+00  3.00D+00  2.34D+00  3.00D+00
                    CP:  3.00D+00  3.00D+00  3.00D+00  3.00D+00  2.99D+00
                    CP:  3.00D+00
 E= -731.051690945129     Delta-E=       -0.000000000035 Rises=F Damp=F
 DIIS: error= 8.23D-08 at cycle  17 NSaved=  17.
 NSaved=17 IEnMin=17 EnMin= -731.051690945129     IErMin=17 ErrMin= 8.23D-08
 ErrMax= 8.23D-08  0.00D+00 EMaxC= 1.00D-01 BMatC= 1.20D-12 BMatP= 9.35D-13
 IDIUse=1 WtCom= 1.00D+00 WtEn= 0.00D+00
 Coeff-Com:  0.111D-02-0.116D-01-0.108D-01 0.985D-02 0.138D-01 0.432D-01
 Coeff-Com:  0.133D-01-0.617D-01-0.107D+00-0.104D-01 0.178D+00 0.429D+00
 Coeff-Com: -0.335D-01-0.118D+01-0.131D+01 0.224D+01 0.804D+00
 Coeff:      0.111D-02-0.116D-01-0.108D-01 0.985D-02 0.138D-01 0.432D-01
 Coeff:      0.133D-01-0.617D-01-0.107D+00-0.104D-01 0.178D+00 0.429D+00
 Coeff:     -0.335D-01-0.118D+01-0.131D+01 0.224D+01 0.804D+00
 Gap=     0.098 Goal=   None    Shift=    0.000
 RMSDP=1.58D-07 MaxDP=2.37D-06 DE=-3.48D-11 OVMax= 1.24D-05

 Cycle  44  Pass 1  IDiag  1:
 RMSU=  1.50D-07    CP:  1.00D+00  1.33D+00  2.41D+00  3.00D+00  3.00D+00
                    CP:  3.00D+00  3.00D+00  3.00D+00  2.37D+00  3.00D+00
                    CP:  3.00D+00  3.00D+00  3.00D+00  3.00D+00  3.00D+00
                    CP:  3.00D+00  2.50D+00
 E= -731.051690945164     Delta-E=       -0.000000000035 Rises=F Damp=F
 DIIS: error= 5.11D-08 at cycle  18 NSaved=  18.
 NSaved=18 IEnMin=18 EnMin= -731.051690945164     IErMin=18 ErrMin= 5.11D-08
 ErrMax= 5.11D-08  0.00D+00 EMaxC= 1.00D-01 BMatC= 3.02D-13 BMatP= 9.35D-13
 IDIUse=1 WtCom= 1.00D+00 WtEn= 0.00D+00
 Coeff-Com: -0.909D-04 0.527D-02 0.294D-02-0.847D-02-0.352D-01-0.116D-01
 Coeff-Com:  0.469D-01 0.640D-01-0.192D-01-0.144D+00-0.490D-01 0.896D-01
 Coeff-Com:  0.354D+00 0.119D+00-0.614D+00-0.353D+00-0.118D+00 0.167D+01
 Coeff:     -0.909D-04 0.527D-02 0.294D-02-0.847D-02-0.352D-01-0.116D-01
 Coeff:      0.469D-01 0.640D-01-0.192D-01-0.144D+00-0.490D-01 0.896D-01
 Coeff:      0.354D+00 0.119D+00-0.614D+00-0.353D+00-0.118D+00 0.167D+01
 Gap=     0.098 Goal=   None    Shift=    0.000
 RMSDP=1.44D-07 MaxDP=1.99D-06 DE=-3.55D-11 OVMax= 1.14D-05

 Cycle  45  Pass 1  IDiag  1:
 RMSU=  3.72D-08    CP:  1.00D+00  1.33D+00  2.41D+00  3.00D+00  3.00D+00
                    CP:  3.00D+00  3.00D+00  3.00D+00  2.40D+00  3.00D+00
                    CP:  3.00D+00  3.00D+00  3.00D+00  3.00D+00  3.00D+00
                    CP:  3.00D+00  3.00D+00  1.89D+00
 E= -731.051690945180     Delta-E=       -0.000000000016 Rises=F Damp=F
 DIIS: error= 3.22D-08 at cycle  19 NSaved=  19.
 NSaved=19 IEnMin=19 EnMin= -731.051690945180     IErMin=19 ErrMin= 3.22D-08
 ErrMax= 3.22D-08  0.00D+00 EMaxC= 1.00D-01 BMatC= 1.47D-13 BMatP= 3.02D-13
 IDIUse=1 WtCom= 1.00D+00 WtEn= 0.00D+00
 Coeff-Com: -0.417D-03 0.485D-02 0.409D-02-0.253D-02-0.125D-01-0.160D-01
 Coeff-Com:  0.654D-02 0.221D-01 0.318D-01 0.968D-02-0.799D-01-0.190D+00
 Coeff-Com:  0.737D-01 0.563D+00 0.165D+00-0.638D+00-0.482D+00 0.361D+00
 Coeff-Com:  0.118D+01
 Coeff:     -0.417D-03 0.485D-02 0.409D-02-0.253D-02-0.125D-01-0.160D-01
 Coeff:      0.654D-02 0.221D-01 0.318D-01 0.968D-02-0.799D-01-0.190D+00
 Coeff:      0.737D-01 0.563D+00 0.165D+00-0.638D+00-0.482D+00 0.361D+00
 Coeff:      0.118D+01
 Gap=     0.098 Goal=   None    Shift=    0.000
 RMSDP=6.01D-08 MaxDP=7.89D-07 DE=-1.64D-11 OVMax= 4.67D-06

 Cycle  46  Pass 1  IDiag  1:
 RMSU=  5.50D-09    CP:  1.00D+00  1.33D+00  2.42D+00  3.00D+00  3.00D+00
                    CP:  3.00D+00  3.00D+00  3.00D+00  2.41D+00  3.00D+00
                    CP:  3.00D+00  3.00D+00  3.00D+00  3.00D+00  3.00D+00
                    CP:  3.00D+00  3.00D+00  2.25D+00  1.67D+00
 E= -731.051690945186     Delta-E=       -0.000000000005 Rises=F Damp=F
 DIIS: error= 1.96D-08 at cycle  20 NSaved=  20.
 NSaved=20 IEnMin=20 EnMin= -731.051690945186     IErMin=20 ErrMin= 1.96D-08
 ErrMax= 1.96D-08  0.00D+00 EMaxC= 1.00D-01 BMatC= 5.15D-14 BMatP= 1.47D-13
 IDIUse=1 WtCom= 1.00D+00 WtEn= 0.00D+00
 Coeff-Com:  0.115D-03-0.323D-02-0.183D-02 0.537D-02 0.164D-01 0.854D-02
 Coeff-Com: -0.194D-01-0.397D-01 0.249D-02 0.910D-01 0.224D-01-0.813D-01
 Coeff-Com: -0.145D+00 0.320D-01 0.114D+00 0.292D+00-0.823D-01-0.630D+00
 Coeff-Com: -0.290D-01 0.145D+01
 Coeff:      0.115D-03-0.323D-02-0.183D-02 0.537D-02 0.164D-01 0.854D-02
 Coeff:     -0.194D-01-0.397D-01 0.249D-02 0.910D-01 0.224D-01-0.813D-01
 Coeff:     -0.145D+00 0.320D-01 0.114D+00 0.292D+00-0.823D-01-0.630D+00
 Coeff:     -0.290D-01 0.145D+01
 Gap=     0.098 Goal=   None    Shift=    0.000
 RMSDP=3.62D-08 MaxDP=4.90D-07 DE=-5.46D-12 OVMax= 2.63D-06

 Cycle  47  Pass 1  IDiag  1:
 Restarting incremental Fock formation.
 E= -731.051690945187     Delta-E=       -0.000000000001 Rises=F Damp=F
 DIIS: error= 1.17D-08 at cycle  21 NSaved=  20.
 NSaved=20 IEnMin=20 EnMin= -731.051690945187     IErMin=20 ErrMin= 1.17D-08
 ErrMax= 1.17D-08  0.00D+00 EMaxC= 1.00D-01 BMatC= 2.29D-14 BMatP= 5.15D-14
 IDIUse=1 WtCom= 1.00D+00 WtEn= 0.00D+00
 Large coefficients: NSaved= 20 BigCof=    0.00 CofMax=   10.00 Det=-4.54D-15
 Inversion failed.  Reducing to 19 matrices.
 Large coefficients: NSaved= 19 BigCof=    0.00 CofMax=   10.00 Det=-5.13D-15
 Inversion failed.  Reducing to 18 matrices.
 Large coefficients: NSaved= 18 BigCof=    0.00 CofMax=   10.00 Det=-5.18D-15
 Inversion failed.  Reducing to 17 matrices.
 Large coefficients: NSaved= 17 BigCof=    0.00 CofMax=   10.00 Det=-5.74D-15
 Inversion failed.  Reducing to 16 matrices.
 Large coefficients: NSaved= 16 BigCof=    0.00 CofMax=   10.00 Det=-5.87D-15
 Inversion failed.  Reducing to 15 matrices.
 Coeff-Com: -0.116D-02-0.252D-02 0.399D-02 0.198D-01-0.841D-02-0.540D-01
 Coeff-Com: -0.130D-01 0.961D-01 0.309D-01-0.409D-01-0.261D-01-0.226D-01
 Coeff-Com: -0.251D+00 0.259D+00 0.101D+01
 Coeff:     -0.116D-02-0.252D-02 0.399D-02 0.198D-01-0.841D-02-0.540D-01
 Coeff:     -0.130D-01 0.961D-01 0.309D-01-0.409D-01-0.261D-01-0.226D-01
 Coeff:     -0.251D+00 0.259D+00 0.101D+01
 Gap=     0.098 Goal=   None    Shift=    0.000
 RMSDP=1.17D-08 MaxDP=1.62D-07 DE=-9.09D-13 OVMax= 8.40D-07

 Cycle  48  Pass 1  IDiag  1:
 RMSU=  1.17D-08    CP:  1.00D+00
 E= -731.051690945185     Delta-E=        0.000000000001 Rises=F Damp=F
 DIIS: error= 5.47D-09 at cycle  22 NSaved=  16.
 NSaved=16 IEnMin=15 EnMin= -731.051690945187     IErMin=16 ErrMin= 5.47D-09
 ErrMax= 5.47D-09  0.00D+00 EMaxC= 1.00D-01 BMatC= 3.82D-15 BMatP= 2.29D-14
 IDIUse=1 WtCom= 1.00D+00 WtEn= 0.00D+00
 Large coefficients: NSaved= 16 BigCof=    0.00 CofMax=   10.00 Det=-4.42D-15
 Inversion failed.  Reducing to 15 matrices.
 Coeff-Com: -0.116D-02-0.123D-02 0.277D-02-0.138D-03-0.624D-02 0.989D-02
 Coeff-Com:  0.793D-02-0.441D-01-0.568D-02 0.276D-01 0.118D+00-0.175D+00
 Coeff-Com: -0.192D+00 0.382D+00 0.877D+00
 Coeff:     -0.116D-02-0.123D-02 0.277D-02-0.138D-03-0.624D-02 0.989D-02
 Coeff:      0.793D-02-0.441D-01-0.568D-02 0.276D-01 0.118D+00-0.175D+00
 Coeff:     -0.192D+00 0.382D+00 0.877D+00
 Gap=     0.098 Goal=   None    Shift=    0.000
 RMSDP=5.53D-09 MaxDP=7.82D-08 DE= 1.36D-12 OVMax= 3.85D-07

 SCF Done:  E(RwB97XD) =  -731.051690945     A.U. after   48 cycles
            NFock= 48  Conv=0.55D-08     -V/T= 2.0047
 KE= 7.276188592225D+02 PE=-3.297026644796D+03 EE= 1.011228123663D+03
 Leave Link  502 at Wed Jan  5 16:38:30 2022, MaxMem=   402653184 cpu:            2552.5 elap:             461.6
 (Enter /work/01114/jfonner/frontera/gaussian/16rC.01/g16/l601.exe)
 Copying SCF densities to generalized density rwf, IOpCl= 0 IROHF=0.

 **********************************************************************

            Population analysis using the SCF Density.

 **********************************************************************

 Orbital symmetries:
       Occupied  (A) (A) (A) (A) (A) (A) (A) (A) (A) (A) (A) (A)
                 (A) (A) (A) (A) (A) (A) (A) (A) (A) (A) (A) (A)
                 (A) (A) (A) (A) (A) (A) (A) (A) (A) (A) (A) (A)
                 (A) (A) (A) (A) (A) (A) (A) (A) (A) (A) (A) (A)
                 (A)
       Virtual   (A) (A) (A) (A) (A) (A) (A) (A) (A) (A) (A) (A)
                 (A) (A) (A) (A) (A) (A) (A) (A) (A) (A) (A) (A)
                 (A) (A) (A) (A) (A) (A) (A) (A) (A) (A) (A) (A)
                 (A) (A) (A) (A) (A) (A) (A) (A) (A) (A) (A) (A)
                 (A) (A) (A) (A) (A) (A) (A) (A) (A) (A) (A) (A)
                 (A) (A) (A) (A) (A) (A) (A) (A) (A) (A) (A) (A)
                 (A) (A) (A) (A) (A) (A) (A) (A) (A) (A) (A) (A)
                 (A) (A) (A) (A) (A) (A) (A) (A)
 The electronic state is 1-A.
 Alpha  occ. eigenvalues --  -20.01260 -19.98109 -19.95079 -15.25034 -15.21940
 Alpha  occ. eigenvalues --  -15.21912 -11.20923 -11.19397 -11.16542 -11.13843
 Alpha  occ. eigenvalues --  -11.13464 -11.13265 -11.10439 -11.07094 -11.03973
 Alpha  occ. eigenvalues --   -1.91139  -1.88751  -1.83714  -1.75565  -1.74581
 Alpha  occ. eigenvalues --   -1.70747  -1.66466  -1.57030  -1.51988  -1.47900
 Alpha  occ. eigenvalues --   -1.45263  -1.37631  -1.33710  -1.32115  -1.26395
 Alpha  occ. eigenvalues --   -1.24836  -1.24277  -1.23621  -1.21710  -1.21404
 Alpha  occ. eigenvalues --   -1.18183  -1.17564  -1.16776  -1.14881  -1.13340
 Alpha  occ. eigenvalues --   -1.12209  -1.09188  -1.07712  -1.06450  -1.05768
 Alpha  occ. eigenvalues --   -1.04049  -1.03137  -1.01283  -0.96551
 Alpha virt. eigenvalues --   -0.86718  -0.78440  -0.77023  -0.75651  -0.75086
 Alpha virt. eigenvalues --   -0.73194  -0.73012  -0.69958  -0.63945  -0.60916
 Alpha virt. eigenvalues --   -0.57255  -0.52046  -0.43665  -0.41324  -0.37587
 Alpha virt. eigenvalues --   -0.36758  -0.35649  -0.35345  -0.34523  -0.32783
 Alpha virt. eigenvalues --   -0.31282  -0.30268  -0.27168  -0.25652  -0.24751
 Alpha virt. eigenvalues --   -0.23002  -0.18116  -0.16183  -0.13988  -0.09316
 Alpha virt. eigenvalues --   -0.08625  -0.07661  -0.05006  -0.03394  -0.01862
 Alpha virt. eigenvalues --   -0.00684   0.00400   0.00986   0.01142   0.01362
 Alpha virt. eigenvalues --    0.02136   0.03208   0.04443   0.04805   0.05124
 Alpha virt. eigenvalues --    0.07133   0.08975   0.10018   0.10949   0.11666
 Alpha virt. eigenvalues --    0.13426   0.13505   0.14516   0.16006   0.17434
 Alpha virt. eigenvalues --    0.18743   0.20935   0.21385   0.22949   0.25678
 Alpha virt. eigenvalues --    0.27685   0.31606   0.35477   0.37139   0.38516
 Alpha virt. eigenvalues --    0.38711   0.40359   0.42113   0.42918   0.43566
 Alpha virt. eigenvalues --    0.45247   0.45531   0.48850   0.50124   0.51914
 Alpha virt. eigenvalues --    0.53105   0.53697   0.57085   0.58477   0.61904
 Alpha virt. eigenvalues --    0.62298   0.64827   0.67556   0.73037   0.79830
 Alpha virt. eigenvalues --    0.88190   0.98184   1.05466   1.07060   1.22685
 Alpha virt. eigenvalues --    1.33842   1.39618
          Condensed to atoms (all electrons):
               1          2          3          4          5          6
     1  C    4.984337   0.371482  -0.007377  -0.005290  -0.011526  -0.000119
     2  O    0.371482   7.817691  -0.084642  -0.001758  -0.004809  -0.000287
     3  N   -0.007377  -0.084642   7.012029   0.309113  -0.015544  -0.000317
     4  C   -0.005290  -0.001758   0.309113   5.161011   0.134394  -0.075274
     5  C   -0.011526  -0.004809  -0.015544   0.134394   5.067783   0.408565
     6  O   -0.000119  -0.000287  -0.000317  -0.075274   0.408565   7.867959
     7  N    0.001217   0.000329  -0.004329  -0.176794   0.092788  -0.112198
     8  C   -0.000046  -0.000005   0.000013   0.005487  -0.055655  -0.006461
     9  C   -0.000000   0.000000  -0.000016  -0.000268   0.005476  -0.000855
    10  O   -0.000000  -0.000000  -0.000001   0.000012   0.001105   0.000008
    11  N    0.000000   0.000000   0.000000  -0.000019  -0.000175  -0.000306
    12  C   -0.000000  -0.000000  -0.000000   0.000001   0.000022   0.000006
    13  C   -0.000009  -0.000000   0.000040  -0.000159  -0.000377   0.000290
    14  C    0.000000   0.000000  -0.000000  -0.000000  -0.000000   0.000004
    15  C    0.000038   0.000004  -0.000007  -0.000024   0.000978   0.000152
    16  H    0.347542  -0.041764  -0.068027   0.004942  -0.000536  -0.000006
    17  H    0.000000   0.000000   0.000000  -0.000000  -0.000000  -0.000000
    18  H   -0.000000  -0.000000  -0.000000   0.000000   0.000008   0.000001
               7          8          9         10         11         12
     1  C    0.001217  -0.000046  -0.000000  -0.000000   0.000000  -0.000000
     2  O    0.000329  -0.000005   0.000000  -0.000000   0.000000  -0.000000
     3  N   -0.004329   0.000013  -0.000016  -0.000001   0.000000  -0.000000
     4  C   -0.176794   0.005487  -0.000268   0.000012  -0.000019   0.000001
     5  C    0.092788  -0.055655   0.005476   0.001105  -0.000175   0.000022
     6  O   -0.112198  -0.006461  -0.000855   0.000008  -0.000306   0.000006
     7  N    7.281576   0.303476  -0.085300  -0.006528   0.003778  -0.000498
     8  C    0.303476   5.466696   0.121479  -0.127467  -0.191671   0.005999
     9  C   -0.085300   0.121479   5.214654   0.392040   0.122755  -0.039954
    10  O   -0.006528  -0.127467   0.392040   7.905246  -0.138675  -0.005012
    11  N    0.003778  -0.191671   0.122755  -0.138675   7.128867   0.235135
    12  C   -0.000498   0.005999  -0.039954  -0.005012   0.235135   4.981589
    13  C   -0.085947   0.193430  -0.074319   0.014292   0.002804  -0.000346
    14  C    0.001095  -0.008967   0.000292  -0.000539   0.000087  -0.000009
    15  C   -0.004951   0.003139  -0.000057  -0.000141  -0.000151   0.000001
    16  H    0.000032  -0.000002  -0.000000  -0.000000   0.000000  -0.000000
    17  H    0.000001  -0.000244  -0.000353  -0.000211  -0.027844   0.323377
    18  H    0.000004  -0.000090   0.001200   0.000350  -0.027232   0.322597
              13         14         15         16         17         18
     1  C   -0.000009   0.000000   0.000038   0.347542   0.000000  -0.000000
     2  O   -0.000000   0.000000   0.000004  -0.041764   0.000000  -0.000000
     3  N    0.000040  -0.000000  -0.000007  -0.068027   0.000000  -0.000000
     4  C   -0.000159  -0.000000  -0.000024   0.004942  -0.000000   0.000000
     5  C   -0.000377  -0.000000   0.000978  -0.000536  -0.000000   0.000008
     6  O    0.000290   0.000004   0.000152  -0.000006  -0.000000   0.000001
     7  N   -0.085947   0.001095  -0.004951   0.000032   0.000001   0.000004
     8  C    0.193430  -0.008967   0.003139  -0.000002  -0.000244  -0.000090
     9  C   -0.074319   0.000292  -0.000057  -0.000000  -0.000353   0.001200
    10  O    0.014292  -0.000539  -0.000141  -0.000000  -0.000211   0.000350
    11  N    0.002804   0.000087  -0.000151   0.000000  -0.027844  -0.027232
    12  C   -0.000346  -0.000009   0.000001  -0.000000   0.323377   0.322597
    13  C    6.357009  -0.069880  -0.083976   0.000000   0.000019  -0.000003
    14  C   -0.069880   5.348829  -0.008396  -0.000000   0.000009  -0.000000
    15  C   -0.083976  -0.008396   5.403370  -0.000001  -0.000000  -0.000000
    16  H    0.000000  -0.000000  -0.000001   0.329900   0.000000  -0.000000
    17  H    0.000019   0.000009  -0.000000   0.000000   0.279280  -0.009328
    18  H   -0.000003  -0.000000  -0.000000  -0.000000  -0.009328   0.275506
 Mulliken charges:
               1
     1  C    0.319750
     2  O   -0.056241
     3  N   -0.140934
     4  C    0.644625
     5  C    0.377503
     6  O   -0.081164
     7  N   -0.207751
     8  C    0.290889
     9  C    0.343228
    10  O   -0.034478
    11  N   -0.107354
    12  C    0.177091
    13  C   -0.252868
    14  C    0.737476
    15  C    0.690023
    16  H    0.427921
    17  H    0.435296
    18  H    0.436988
 Sum of Mulliken charges =   4.00000
 Mulliken charges with hydrogens summed into heavy atoms:
               1
     1  C    0.747672
     2  O   -0.056241
     3  N   -0.140934
     4  C    0.644625
     5  C    0.377503
     6  O   -0.081164
     7  N   -0.207751
     8  C    0.290889
     9  C    0.343228
    10  O   -0.034478
    11  N   -0.107354
    12  C    1.049375
    13  C   -0.252868
    14  C    0.737476
    15  C    0.690023
 Electronic spatial extent (au):  <R**2>=           3226.3818
 Charge=              4.0000 electrons
 Dipole moment (field-independent basis, Debye):
    X=             10.6237    Y=              2.5717    Z=              0.2972  Tot=             10.9345
 Quadrupole moment (field-independent basis, Debye-Ang):
   XX=            101.1038   YY=             -6.4172   ZZ=            -73.1994
   XY=            -14.8649   XZ=            -21.1262   YZ=             -0.1418
 Traceless Quadrupole moment (field-independent basis, Debye-Ang):
   XX=             93.9414   YY=            -13.5796   ZZ=            -80.3618
   XY=            -14.8649   XZ=            -21.1262   YZ=             -0.1418
 Octapole moment (field-independent basis, Debye-Ang**2):
  XXX=            113.4968  YYY=             51.3145  ZZZ=             -1.1523  XYY=            106.9766
  XXY=           -117.3776  XXZ=             19.4171  XZZ=             -4.8021  YZZ=             -4.8362
  YYZ=            -12.3395  XYZ=              9.8323
 Hexadecapole moment (field-independent basis, Debye-Ang**3):
 XXXX=            -39.9762 YYYY=           -340.0529 ZZZZ=           -314.6242 XXXY=           -644.3529
 XXXZ=           -348.6330 YYYX=            -50.5858 YYYZ=              7.7301 ZZZX=              1.8978
 ZZZY=              4.6789 XXYY=           -166.5471 XXZZ=           -476.8274 YYZZ=           -174.5188
 XXYZ=             80.8683 YYXZ=            -42.5429 ZZXY=            -23.2025
 N-N= 8.271279709655D+02 E-N=-3.297026645281D+03  KE= 7.276188592225D+02
 No NMR shielding tensors so no spin-rotation constants.
 Leave Link  601 at Wed Jan  5 16:38:37 2022, MaxMem=   402653184 cpu:              36.7 elap:               6.7
 (Enter /work/01114/jfonner/frontera/gaussian/16rC.01/g16/l9999.exe)
 Unable to Open any file for archive entry.
 1\1\GINC-C202-005\SP\RwB97XD\6-31G\C9H3N3O3(4+)\SA748948\05-Jan-2022\0
 \\#p int=acc2e=12 wb97xd/6-31g\\Atom number=18\\4,1\C,0,3.911,0.258,8.
 229\O,0,4.064,1.478,8.228\N,0,4.364,-0.527,9.189\C,0,5.067,0.02,10.326
 \C,0,4.271,0.817,11.296\O,0,4.359,2.033,11.367\N,0,3.492,0.104,12.073\
 C,0,2.585,0.677,13.085\C,0,3.006,0.047,14.361\O,0,2.958,-1.169,14.515\
 N,0,3.481,0.887,15.262\C,0,4.163,0.392,16.442\C,0,1.127,0.33,12.827\C,
 0,0.248,0.675,14.038\C,0,0.674,1.047,11.596\H,0,3.39884938,-0.23067705
 ,7.4266307\H,0,3.64026211,0.79731639,17.28304918\H,0,5.20408592,0.6363
 9919,16.405818\\Version=ES64L-G16RevC.01\State=1-A\HF=-731.0516909\RMS
 D=5.532e-09\Dipole=-1.8613284,-0.2977822,3.8670157\Quadrupole=-11.5038
 945,-60.8759929,72.3798874,-5.0064192,-5.8480936,6.7750999\PG=C01 [X(C
 9H3N3O3)]\\@
 The archive entry for this job was punched.


 ACTORS ARE SO FORTUNATE.  THEY CAN CHOOSE WHETHER
 THEY WILL APPEAR IN A TRAGEDY OR IN COMEDY,
 WHETHER THEY WILL SUFFER OF MAKE MERRY,
 LAUGH OR SHED TEARS.  BUT IN REAL LIFE IT IS DIFFERENT.
 MOST MEN AND WOMEN ARE FORCED TO PERFORM
 PARTS FOR WHICH THEY HAVE NO QUALIFICATIONS.
 THE WORLD IS A STAGE, BUT THE PLAY IS BADLY CAST.

                                   -- OSCAR WILDE
 Job cpu time:       0 days  0 hours 45 minutes 54.0 seconds.
 Elapsed time:       0 days  0 hours  8 minutes 16.8 seconds.
 File lengths (MBytes):  RWF=     15 Int=      0 D2E=      0 Chk=      2 Scr=      1
 Normal termination of Gaussian 16 at Wed Jan  5 16:38:39 2022.
