Atom number=11                                                          
SP        RwB97XD                                                     6-31G               
Number of atoms                            I               11
Info1-9                                    I   N=           9
          80          20           0           0           0         110
           1          18       -5802
Full Title                                 C   N=           2
Atom number=11          
Route                                      C   N=           3
#p int=acc2e=12 wb97xd/6-31g        
Charge                                     I                1
Multiplicity                               I                1
Number of electrons                        I               56
Number of alpha electrons                  I               28
Number of beta electrons                   I               28
Number of basis functions                  I               78
Number of independent functions            I               78
Number of point charges in /Mol/           I                0
Number of translation vectors              I                0
Atomic numbers                             I   N=          11
           6           8           7           6           6           8
           7           6           1           1           1
Nuclear charges                            R   N=          11
  6.00000000E+00  8.00000000E+00  7.00000000E+00  6.00000000E+00  6.00000000E+00
  8.00000000E+00  7.00000000E+00  6.00000000E+00  1.00000000E+00  1.00000000E+00
  1.00000000E+00
Current cartesian coordinates              R   N=          33
 -4.16290263E+00 -6.95362945E-01  9.19996327E-01 -4.12539720E+00  1.62457019E+00
  1.04358879E+00 -2.65458510E+00 -2.00929077E+00 -5.70996397E-01 -8.12644813E-01
 -7.63690703E-01 -2.15391947E+00  1.37605955E+00  4.40226607E-01 -8.68918486E-01
  1.57314217E+00  2.73010075E+00 -6.59951174E-01  3.07383329E+00 -1.15571086E+00
 -2.69027236E-02  5.36759058E+00 -4.06186265E-01  1.36751187E+00 -5.46471164E+00
 -1.77067101E+00  2.03243420E+00  6.89359684E+00 -1.15549932E+00  2.72821527E-01
  5.44580164E+00 -1.20610599E+00  3.22291575E+00
Number of symbols in /Mol/                 I                0
Int Atom Types                             I   N=          11
           0           0           0           0           0           0
           0           0           0           0           0
Force Field                                I                0
Atom Types                                 C   N=          11
                                                            
                                                            
            
MM charges                                 R   N=          11
  0.00000000E+00  0.00000000E+00  0.00000000E+00  0.00000000E+00  0.00000000E+00
  0.00000000E+00  0.00000000E+00  0.00000000E+00  0.00000000E+00  0.00000000E+00
  0.00000000E+00
Integer atomic weights                     I   N=          11
          12          16          14          12          12          16
          14          12           1           1           1
Real atomic weights                        R   N=          11
  1.20000000E+01  1.59949146E+01  1.40030740E+01  1.20000000E+01  1.20000000E+01
  1.59949146E+01  1.40030740E+01  1.20000000E+01  1.00782504E+00  1.00782504E+00
  1.00782504E+00
Atom fragment info                         I   N=          11
           0           0           0           0           0           0
           0           0           0           0           0
Atom residue num                           I   N=          11
           0           0           0           0           0           0
           0           0           0           0           0
Nuclear spins                              I   N=          11
           0           0           2           0           0           0
           2           0           1           1           1
Nuclear ZEff                               R   N=          11
 -3.60000000E+00 -5.60000000E+00 -4.55000000E+00 -3.60000000E+00 -3.60000000E+00
 -5.60000000E+00 -4.55000000E+00 -3.60000000E+00 -1.00000000E+00 -1.00000000E+00
 -1.00000000E+00
Nuclear ZNuc                               R   N=          11
  6.00000000E+00  8.00000000E+00  7.00000000E+00  6.00000000E+00  6.00000000E+00
  8.00000000E+00  7.00000000E+00  6.00000000E+00  1.00000000E+00  1.00000000E+00
  1.00000000E+00
Nuclear QMom                               R   N=          11
  0.00000000E+00  0.00000000E+00  2.04400000E+00  0.00000000E+00  0.00000000E+00
  0.00000000E+00  2.04400000E+00  0.00000000E+00  0.00000000E+00  0.00000000E+00
  0.00000000E+00
Nuclear GFac                               R   N=          11
  0.00000000E+00  0.00000000E+00  4.03761000E-01  0.00000000E+00  0.00000000E+00
  0.00000000E+00  4.03761000E-01  0.00000000E+00  2.79284600E+00  2.79284600E+00
  2.79284600E+00
MicOpt                                     I   N=          11
          -1          -1          -1          -1          -1          -1
          -1          -1          -1          -1          -1
Number of residues                         I                0
Number of secondary structures             I                0
SymInf integers                            I   N=          26
           1           1           1           1           1           0
           0           0           0           0           0           0
           0           0           0           0           0           0
           0           0           0           0           0           0
           0           0
RotTr to input orientation                 R   N=          12
 -2.23372956E-01  4.50793198E-02  9.73690083E-01  1.79281116E-01  9.83787966E-01
 -4.41818147E-03 -9.58103754E-01  1.73577342E-01 -2.27833497E-01  7.46695639E+00
  1.19960934E+00  1.98104670E+01
Number of contracted shells                I               30
Number of primitive shells                 I               92
Pure/Cartesian d shells                    I                1
Pure/Cartesian f shells                    I                0
Highest angular momentum                   I                1
Largest degree of contraction              I                6
Shell types                                I   N=          30
           0          -1          -1           0          -1          -1
           0          -1          -1           0          -1          -1
           0          -1          -1           0          -1          -1
           0          -1          -1           0          -1          -1
           0           0           0           0           0           0
Number of primitives per shell             I   N=          30
           6           3           1           6           3           1
           6           3           1           6           3           1
           6           3           1           6           3           1
           6           3           1           6           3           1
           3           1           3           1           3           1
Shell to atom map                          I   N=          30
           1           1           1           2           2           2
           3           3           3           4           4           4
           5           5           5           6           6           6
           7           7           7           8           8           8
           9           9          10          10          11          11
Primitive exponents                        R   N=          92
  3.04752488E+03  4.57369518E+02  1.03948685E+02  2.92101553E+01  9.28666296E+00
  3.16392696E+00  7.86827235E+00  1.88128854E+00  5.44249258E-01  1.68714478E-01
  5.48467166E+03  8.25234946E+02  1.88046958E+02  5.29645000E+01  1.68975704E+01
  5.79963534E+00  1.55396162E+01  3.59993359E+00  1.01376175E+00  2.70005823E-01
  4.17351146E+03  6.27457911E+02  1.42902093E+02  4.02343293E+01  1.28202129E+01
  4.39043701E+00  1.16263619E+01  2.71627981E+00  7.72218397E-01  2.12031498E-01
  3.04752488E+03  4.57369518E+02  1.03948685E+02  2.92101553E+01  9.28666296E+00
  3.16392696E+00  7.86827235E+00  1.88128854E+00  5.44249258E-01  1.68714478E-01
  3.04752488E+03  4.57369518E+02  1.03948685E+02  2.92101553E+01  9.28666296E+00
  3.16392696E+00  7.86827235E+00  1.88128854E+00  5.44249258E-01  1.68714478E-01
  5.48467166E+03  8.25234946E+02  1.88046958E+02  5.29645000E+01  1.68975704E+01
  5.79963534E+00  1.55396162E+01  3.59993359E+00  1.01376175E+00  2.70005823E-01
  4.17351146E+03  6.27457911E+02  1.42902093E+02  4.02343293E+01  1.28202129E+01
  4.39043701E+00  1.16263619E+01  2.71627981E+00  7.72218397E-01  2.12031498E-01
  3.04752488E+03  4.57369518E+02  1.03948685E+02  2.92101553E+01  9.28666296E+00
  3.16392696E+00  7.86827235E+00  1.88128854E+00  5.44249258E-01  1.68714478E-01
  1.87311370E+01  2.82539436E+00  6.40121692E-01  1.61277759E-01  1.87311370E+01
  2.82539436E+00  6.40121692E-01  1.61277759E-01  1.87311370E+01  2.82539436E+00
  6.40121692E-01  1.61277759E-01
Contraction coefficients                   R   N=          92
  1.83473713E-03  1.40373228E-02  6.88426223E-02  2.32184443E-01  4.67941348E-01
  3.62311985E-01 -1.19332420E-01 -1.60854152E-01  1.14345644E+00  1.00000000E+00
  1.83107443E-03  1.39501722E-02  6.84450781E-02  2.32714336E-01  4.70192898E-01
  3.58520853E-01 -1.10777550E-01 -1.48026263E-01  1.13076702E+00  1.00000000E+00
  1.83477216E-03  1.39946270E-02  6.85865518E-02  2.32240873E-01  4.69069948E-01
  3.60455199E-01 -1.14961182E-01 -1.69117479E-01  1.14585195E+00  1.00000000E+00
  1.83473713E-03  1.40373228E-02  6.88426223E-02  2.32184443E-01  4.67941348E-01
  3.62311985E-01 -1.19332420E-01 -1.60854152E-01  1.14345644E+00  1.00000000E+00
  1.83473713E-03  1.40373228E-02  6.88426223E-02  2.32184443E-01  4.67941348E-01
  3.62311985E-01 -1.19332420E-01 -1.60854152E-01  1.14345644E+00  1.00000000E+00
  1.83107443E-03  1.39501722E-02  6.84450781E-02  2.32714336E-01  4.70192898E-01
  3.58520853E-01 -1.10777550E-01 -1.48026263E-01  1.13076702E+00  1.00000000E+00
  1.83477216E-03  1.39946270E-02  6.85865518E-02  2.32240873E-01  4.69069948E-01
  3.60455199E-01 -1.14961182E-01 -1.69117479E-01  1.14585195E+00  1.00000000E+00
  1.83473713E-03  1.40373228E-02  6.88426223E-02  2.32184443E-01  4.67941348E-01
  3.62311985E-01 -1.19332420E-01 -1.60854152E-01  1.14345644E+00  1.00000000E+00
  3.34946043E-02  2.34726953E-01  8.13757326E-01  1.00000000E+00  3.34946043E-02
  2.34726953E-01  8.13757326E-01  1.00000000E+00  3.34946043E-02  2.34726953E-01
  8.13757326E-01  1.00000000E+00
P(S=P) Contraction coefficients            R   N=          92
  0.00000000E+00  0.00000000E+00  0.00000000E+00  0.00000000E+00  0.00000000E+00
  0.00000000E+00  6.89990666E-02  3.16423961E-01  7.44308291E-01  1.00000000E+00
  0.00000000E+00  0.00000000E+00  0.00000000E+00  0.00000000E+00  0.00000000E+00
  0.00000000E+00  7.08742682E-02  3.39752839E-01  7.27158577E-01  1.00000000E+00
  0.00000000E+00  0.00000000E+00  0.00000000E+00  0.00000000E+00  0.00000000E+00
  0.00000000E+00  6.75797439E-02  3.23907296E-01  7.40895140E-01  1.00000000E+00
  0.00000000E+00  0.00000000E+00  0.00000000E+00  0.00000000E+00  0.00000000E+00
  0.00000000E+00  6.89990666E-02  3.16423961E-01  7.44308291E-01  1.00000000E+00
  0.00000000E+00  0.00000000E+00  0.00000000E+00  0.00000000E+00  0.00000000E+00
  0.00000000E+00  6.89990666E-02  3.16423961E-01  7.44308291E-01  1.00000000E+00
  0.00000000E+00  0.00000000E+00  0.00000000E+00  0.00000000E+00  0.00000000E+00
  0.00000000E+00  7.08742682E-02  3.39752839E-01  7.27158577E-01  1.00000000E+00
  0.00000000E+00  0.00000000E+00  0.00000000E+00  0.00000000E+00  0.00000000E+00
  0.00000000E+00  6.75797439E-02  3.23907296E-01  7.40895140E-01  1.00000000E+00
  0.00000000E+00  0.00000000E+00  0.00000000E+00  0.00000000E+00  0.00000000E+00
  0.00000000E+00  6.89990666E-02  3.16423961E-01  7.44308291E-01  1.00000000E+00
  0.00000000E+00  0.00000000E+00  0.00000000E+00  0.00000000E+00  0.00000000E+00
  0.00000000E+00  0.00000000E+00  0.00000000E+00  0.00000000E+00  0.00000000E+00
  0.00000000E+00  0.00000000E+00
Coordinates of each shell                  R   N=          90
 -4.16290263E+00 -6.95362945E-01  9.19996327E-01 -4.16290263E+00 -6.95362945E-01
  9.19996327E-01 -4.16290263E+00 -6.95362945E-01  9.19996327E-01 -4.12539720E+00
  1.62457019E+00  1.04358879E+00 -4.12539720E+00  1.62457019E+00  1.04358879E+00
 -4.12539720E+00  1.62457019E+00  1.04358879E+00 -2.65458510E+00 -2.00929077E+00
 -5.70996397E-01 -2.65458510E+00 -2.00929077E+00 -5.70996397E-01 -2.65458510E+00
 -2.00929077E+00 -5.70996397E-01 -8.12644813E-01 -7.63690703E-01 -2.15391947E+00
 -8.12644813E-01 -7.63690703E-01 -2.15391947E+00 -8.12644813E-01 -7.63690703E-01
 -2.15391947E+00  1.37605955E+00  4.40226607E-01 -8.68918486E-01  1.37605955E+00
  4.40226607E-01 -8.68918486E-01  1.37605955E+00  4.40226607E-01 -8.68918486E-01
  1.57314217E+00  2.73010075E+00 -6.59951174E-01  1.57314217E+00  2.73010075E+00
 -6.59951174E-01  1.57314217E+00  2.73010075E+00 -6.59951174E-01  3.07383329E+00
 -1.15571086E+00 -2.69027236E-02  3.07383329E+00 -1.15571086E+00 -2.69027236E-02
  3.07383329E+00 -1.15571086E+00 -2.69027236E-02  5.36759058E+00 -4.06186265E-01
  1.36751187E+00  5.36759058E+00 -4.06186265E-01  1.36751187E+00  5.36759058E+00
 -4.06186265E-01  1.36751187E+00 -5.46471164E+00 -1.77067101E+00  2.03243420E+00
 -5.46471164E+00 -1.77067101E+00  2.03243420E+00  6.89359684E+00 -1.15549932E+00
  2.72821527E-01  6.89359684E+00 -1.15549932E+00  2.72821527E-01  5.44580164E+00
 -1.20610599E+00  3.22291575E+00  5.44580164E+00 -1.20610599E+00  3.22291575E+00
Num ILSW                                   I              100
ILSW                                       I   N=         100
           0           1           0           0           2           0
           0           0           0           0        4639          -1
           5           0           0           0           0           0
           0           0           0           0           0           0
           1           0           0           0           0           0
           0           0      100000           0          -1           0
           0           0           0           0           0           0
           0           0           0           1           0           0
           0 -2000000000           1           0           0           0
           0           0         121          52           0           0
           0           0          58           0           0           0
           0           0           0          11           0           1
           0           0           0           0           0           0
           0           0           0           0           0           0
           0           0           0           0           0           0
           0           0           0           0           0           0
           0           0           0           0
Num RLSW                                   I               52
RLSW                                       R   N=          52
  1.00000000E+00  1.00000000E+00  1.00000000E+00  1.00000000E+00  1.00000000E+00
  0.00000000E+00  2.00000000E-01  2.22036000E-01  0.00000000E+00  7.77964000E-01
  0.00000000E+00  2.00000000E-01  0.00000000E+00  0.00000000E+00  1.00000000E+00
  0.00000000E+00  0.00000000E+00  1.00000000E+00  0.00000000E+00  0.00000000E+00
  0.00000000E+00  0.00000000E+00  1.00000000E+00  0.00000000E+00  0.00000000E+00
  0.00000000E+00  0.00000000E+00  1.00000000E+00  0.00000000E+00  0.00000000E+00
  0.00000000E+00  0.00000000E+00  1.00000000E+00  0.00000000E+00  0.00000000E+00
  0.00000000E+00  0.00000000E+00  0.00000000E+00  1.00000000E+00  1.00000000E+00
  0.00000000E+00  1.00000000E+00  0.00000000E+00  0.00000000E+00  0.00000000E+00
  0.00000000E+00  0.00000000E+00  0.00000000E+00  0.00000000E+00  0.00000000E+00
  0.00000000E+00  0.00000000E+00
MxBond                                     I                3
NBond                                      I   N=          11
           3           1           2           2           3           1
           2           3           1           1           1
IBond                                      I   N=          33
           2           3           9           1           0           0
           1           4           0           3           5           0
           4           6           7           5           0           0
           5           8           0           7          10          11
           1           0           0           8           0           0
           8           0           0
RBond                                      R   N=          33
  2.00000000E+00  1.50000000E+00  1.00000000E+00  2.00000000E+00  0.00000000E+00
  0.00000000E+00  1.50000000E+00  1.00000000E+00  0.00000000E+00  1.00000000E+00
  1.00000000E+00  0.00000000E+00  1.00000000E+00  2.00000000E+00  1.50000000E+00
  2.00000000E+00  0.00000000E+00  0.00000000E+00  1.50000000E+00  1.00000000E+00
  0.00000000E+00  1.00000000E+00  1.00000000E+00  1.00000000E+00  1.00000000E+00
  0.00000000E+00  0.00000000E+00  1.00000000E+00  0.00000000E+00  0.00000000E+00
  1.00000000E+00  0.00000000E+00  0.00000000E+00
Virial Ratio                               R      2.005633678144068E+00
SCF Energy                                 R     -4.132392917054499E+02
Total Energy                               R     -4.132392917054499E+02
RMS Density                                R      6.644420113264871E-09
Job Status                                 I                1
Nuclear derivative order                   I                0
External E-field                           R   N=          35
  0.00000000E+00  0.00000000E+00  0.00000000E+00  0.00000000E+00  0.00000000E+00
  0.00000000E+00  0.00000000E+00  0.00000000E+00  0.00000000E+00  0.00000000E+00
  0.00000000E+00  0.00000000E+00  0.00000000E+00  0.00000000E+00  0.00000000E+00
  0.00000000E+00  0.00000000E+00  0.00000000E+00  0.00000000E+00  0.00000000E+00
  0.00000000E+00  0.00000000E+00  0.00000000E+00  0.00000000E+00  0.00000000E+00
  0.00000000E+00  0.00000000E+00  0.00000000E+00  0.00000000E+00  0.00000000E+00
  0.00000000E+00  0.00000000E+00  0.00000000E+00  0.00000000E+00  0.00000000E+00
IOpCl                                      I                0
IROHF                                      I                0
Alpha Orbital Energies                     R   N=          78
 -1.95199055E+01 -1.95119065E+01 -1.47944217E+01 -1.47340138E+01 -1.07217303E+01
 -1.06822272E+01 -1.06435889E+01 -1.06431514E+01 -1.43177075E+00 -1.42127350E+00
 -1.29782565E+00 -1.25832802E+00 -1.10869590E+00 -1.03720394E+00 -9.45590366E-01
 -8.48855848E-01 -8.20186021E-01 -7.98680330E-01 -7.76137652E-01 -7.69339169E-01
 -7.63283429E-01 -7.30409630E-01 -6.83228870E-01 -6.54299479E-01 -6.34801320E-01
 -5.94310063E-01 -5.83002562E-01 -5.59539816E-01 -3.51623544E-01 -3.04126693E-01
 -2.87777384E-01 -1.34667416E-01 -1.28506545E-01  2.06269182E-02  2.47356247E-02
  3.67156984E-02  6.12790221E-02  6.99300333E-02  1.26122417E-01  1.49206012E-01
  1.81647176E-01  2.24249645E-01  2.70651225E-01  3.58088359E-01  3.83541699E-01
  4.06749343E-01  4.08704888E-01  4.15280127E-01  4.23876681E-01  4.40238563E-01
  4.72624475E-01  5.14431783E-01  5.39279928E-01  5.70384205E-01  5.79200363E-01
  5.92984114E-01  6.07823026E-01  6.44797026E-01  6.89035111E-01  7.26456210E-01
  7.55467789E-01  7.67438449E-01  8.08080336E-01  8.14958031E-01  8.27320652E-01
  8.34305299E-01  8.63963365E-01  9.06426059E-01  9.29279011E-01  9.68688049E-01
  9.87539343E-01  1.02066360E+00  1.05725600E+00  1.21870468E+00  1.34587707E+00
  1.42067624E+00  1.61337798E+00  1.77914684E+00
Alpha MO coefficients                      R   N=        6084
  2.00440551E-04  1.98331821E-05 -1.48793396E-04 -4.63245130E-05  1.03546971E-04
  8.91604868E-03  1.78503258E-03  8.68887789E-03 -9.64885629E-04  9.95212980E-01
  2.89519595E-02  1.11588813E-04 -2.52114619E-03 -2.51084776E-04 -2.04559491E-02
 -3.13316638E-04  6.30661984E-03  6.90796661E-04  3.65057312E-05  2.30955783E-04
  2.70738483E-04 -2.36002016E-05 -2.71186017E-04 -2.28310107E-03 -1.78582384E-03
 -2.16524713E-03  1.42546329E-03 -5.34945516E-06 -3.96001542E-05 -1.17672069E-04
 -2.51254909E-04  4.61449974E-05  2.61680926E-03 -3.23264969E-04 -5.68151791E-04
  1.14954336E-03  3.00742770E-05  2.49501534E-04  2.15848904E-05 -2.15391596E-05
  5.58054447E-05 -1.49594552E-03  1.39380652E-04  1.14563237E-03 -4.92071514E-04
  8.72353399E-04  1.67754819E-04 -1.42490705E-05 -1.92610337E-05 -2.68615013E-05
 -5.49963253E-04  5.05080299E-05  1.25783640E-04  1.75119257E-04 -1.13812188E-05
 -1.32466240E-04  1.02680292E-05 -1.89401283E-05 -1.14622454E-05  1.04668002E-03
 -4.66385855E-04  2.63245383E-04 -4.98781662E-05  4.18191751E-07 -9.53532492E-06
  1.93743363E-05  2.74458789E-06 -1.04909295E-05  5.11500179E-05  1.82243802E-06
 -7.61797694E-05  3.68938035E-05  1.36131760E-05  1.76604892E-03 -9.80650936E-06
  3.21602458E-05 -4.69921575E-06 -5.37046367E-05  8.61466786E-06  8.37620140E-05
  6.90137517E-05  1.45651726E-04  3.76049254E-05 -1.02667727E-03 -6.98842878E-04
 -2.36758596E-04  4.26792768E-04 -8.64347407E-04  8.21880389E-05  1.07080819E-04
  6.22663586E-06 -1.30881248E-05  1.37376540E-04 -2.28494093E-04 -9.29486339E-05
 -1.17818079E-05 -1.69179762E-05 -2.00003585E-04  9.98563310E-06 -4.07180708E-05
 -4.00030766E-05  2.59689619E-04 -6.24587110E-04  4.92223946E-04  6.91446338E-04
 -2.83691743E-05 -4.74898367E-04  1.57814192E-04 -2.04011901E-04 -3.98456299E-05
  3.80860526E-03  1.21148098E-03 -1.43377689E-03  1.37203923E-03  2.54956148E-04
  4.93377052E-04 -9.37029331E-05 -1.62263115E-04 -9.23427361E-05  6.95178706E-03
  1.29450304E-03  1.37006329E-02  1.21516824E-03  9.95243422E-01  2.97315737E-02
 -2.64206263E-04 -2.60700481E-03 -2.70159978E-04 -2.42218530E-02  6.52068454E-04
  7.29448790E-03  7.16807768E-04 -1.23839519E-05 -2.65039966E-04  3.39354404E-04
 -1.19305369E-04  1.84399406E-04  2.30606240E-03 -3.55043588E-03 -9.06785187E-04
 -1.97533127E-03  1.30869923E-05  1.90051076E-04 -2.13314224E-04 -1.42191398E-04
 -1.30555979E-04  1.80184109E-03 -3.64484874E-04 -7.09119005E-04 -3.34260928E-04
 -4.60271358E-06 -3.56559567E-04 -7.18334286E-05 -2.69376564E-04 -7.63235885E-05
 -2.10796233E-04  9.80162805E-05 -7.59978252E-04 -2.18601947E-04  3.88078086E-04
  2.26994665E-04  1.12550960E-02  5.53830989E-03 -6.10055982E-04 -5.14815560E-03
  2.27767142E-05  1.96894665E-04  7.65299743E-05  1.46797404E-04 -8.30790840E-05
 -2.45450255E-03 -8.69603771E-04  6.57068463E-04  9.15029910E-04  9.95465468E-01
  3.18675109E-02  1.00931474E-05  2.34568815E-03  1.65226984E-04 -2.77541927E-02
  1.91063330E-04 -7.46023036E-03 -8.12816641E-04  7.93637858E-05 -3.87673862E-04
 -2.87438033E-04  7.16072264E-05  4.39427428E-05  5.03103378E-03 -4.21954175E-03
 -1.46688180E-03  2.53002353E-03 -8.48836399E-05 -1.04285393E-03  3.26029512E-04
  2.70988902E-04  1.26444273E-04  4.11551802E-03  1.49039077E-04 -3.87350514E-03
 -8.18873023E-04 -1.54504108E-05 -2.32829085E-04 -6.17705093E-05 -2.86407488E-05
  1.70243125E-05  1.67659567E-03  9.30981561E-05 -2.27054898E-04 -2.76341446E-05
  1.33249224E-04  3.37457449E-04 -6.35023872E-05  1.19662710E-05 -1.24979997E-04
 -2.75158255E-03  1.97884322E-03 -3.80423575E-04  1.34525563E-03  4.27668001E-06
 -8.68459055E-06  8.88561168E-05  1.67399694E-05  4.46399676E-05 -9.99540237E-04
  1.51351658E-04  4.54290761E-04  1.03780788E-04  1.43647287E-05  1.47011942E-03
  5.31226406E-05  1.62977976E-04  7.55394095E-05  1.26336322E-04  1.26224900E-05
  1.95887661E-04  1.41655757E-04 -3.89274764E-05 -9.42578006E-05  2.51661956E-04
 -1.82160154E-04 -2.74668930E-04  2.16682198E-04 -2.77410759E-06 -9.77899109E-05
 -4.00799880E-05 -2.38720678E-06  1.83541508E-05  2.87343517E-04  1.79012841E-04
 -3.89224681E-05 -8.87558188E-05 -7.36150714E-05  2.95896575E-04 -2.91394086E-05
  6.41577201E-05  5.85083435E-05 -1.13182133E-03 -2.46098706E-04 -6.86247652E-04
 -3.60426846E-04 -9.24376076E-05 -9.18430297E-04 -1.13270107E-04  3.77777513E-05
 -7.47765535E-05  4.76180289E-03  7.53315873E-04  2.03756666E-03  1.32163960E-03
  9.84933529E-05 -1.00224603E-03 -4.43387766E-04  5.75723403E-04 -2.49540002E-04
  1.09306578E-02  9.79856134E-03 -4.76214525E-03  5.11979569E-03  2.63494943E-06
 -2.07857722E-04  1.72428705E-04  1.36910833E-04  1.13706766E-04 -2.46286869E-04
 -1.75316556E-03  2.77283765E-04 -9.90232527E-04  9.95454814E-01  3.19386194E-02
 -3.85084337E-04  2.00441034E-03  8.41647947E-05 -2.94248785E-02  2.10688752E-03
 -7.45921179E-03  5.32787960E-04  6.64590241E-05 -2.37652868E-05 -2.03602098E-04
  1.48023311E-04 -9.10232686E-05  4.52539816E-03 -2.72928383E-03 -4.04919717E-04
 -1.70765937E-03 -4.01457082E-05 -2.84808121E-04 -2.31981123E-04  1.92888902E-04
 -2.23815071E-04  3.43030919E-04 -2.02640990E-04 -6.50024908E-04 -2.63147605E-04
 -1.85310863E-04  2.53204100E-04  2.92508572E-03  2.82676449E-03  2.62137324E-03
 -2.99876668E-03  1.92962218E-05  9.06581183E-05 -1.34374957E-04  5.56507437E-05
  1.25232132E-04 -2.17083142E-03  3.02307971E-05  5.50564144E-04  1.15190260E-04
  6.64860466E-06 -2.97666423E-04 -4.09944535E-04 -3.37399286E-05  2.69821220E-04
  2.44320737E-03  2.41054682E-03 -8.67034833E-04 -3.75343619E-04  9.95592247E-01
  3.28985526E-02  1.86163404E-05 -8.01830003E-05  2.25659756E-03 -2.42210088E-02
 -2.36577490E-03 -1.50416890E-03 -6.82657642E-03  2.46208609E-03 -1.30778779E-03
  4.57737232E-04  3.34495570E-04  4.10155636E-04  6.36731044E-03 -6.18603356E-03
 -6.01807080E-05 -2.44323089E-03 -9.95750697E-06 -2.97471338E-04  2.45469164E-05
  9.73475460E-05  3.59916418E-05 -1.15765661E-04  5.15178576E-04 -1.94999409E-04
  7.19327968E-05 -4.62499804E-05 -6.30832519E-04  4.66404799E-04  1.16141709E-04
  2.68766724E-04  1.98035235E-03 -3.74184315E-03  3.93514748E-04 -2.19297282E-03
 -8.10715297E-05 -4.44372013E-04 -2.05908527E-04 -1.20015329E-04 -7.24842436E-05
  3.64138086E-03 -1.17350183E-03 -5.23760240E-04 -1.03576111E-03  3.50124928E-04
  2.34734115E-03 -1.97002060E-04 -4.00912678E-04 -1.50402076E-04 -7.98031338E-05
 -5.20238916E-04 -5.23454105E-04 -4.06024133E-04 -3.71101344E-05  1.61496530E-04
  1.09888139E-03  1.06878158E-03  6.10823056E-04 -7.39655774E-04  9.67819693E-06
  1.24516018E-04 -8.24058407E-05 -4.96042108E-05 -2.47273704E-05 -8.43369781E-04
 -6.89850547E-06  3.66186923E-04  2.29321867E-04 -4.64394520E-05 -8.23548434E-04
 -2.17494755E-04 -1.49715579E-04  1.51762019E-05  1.47849548E-03  8.99978859E-04
  4.51802324E-04 -4.56022356E-04 -2.49375387E-03 -1.20250956E-03 -4.47718935E-04
 -3.24058448E-04 -2.11022097E-04  8.49668739E-03  4.97800729E-03  2.01527206E-03
  1.37404473E-03  9.95155009E-01  3.40574027E-02 -2.42541442E-04  1.50773984E-04
 -7.44094836E-05 -2.10049326E-02  4.28035964E-03  6.99613800E-03  2.86587640E-03
 -1.36799939E-04  1.99806169E-04  1.51795899E-04  4.17319184E-04  1.00436382E-04
 -2.72549047E-03 -6.63483073E-04  2.16252596E-03 -2.93653468E-04 -1.13713459E-04
 -6.65698406E-04  7.55794466E-04 -5.04975738E-04  3.88552426E-04  2.91226418E-03
 -2.92689806E-03 -9.42095221E-04 -1.67669602E-03 -6.50436434E-05 -4.67424147E-05
 -9.74518994E-05 -9.54638906E-05 -6.10198494E-05  1.58131450E-03 -1.00171077E-03
 -7.45542006E-06 -6.63229867E-04  2.88153913E-05  7.02395471E-04 -6.99034212E-05
  1.08954786E-04 -4.57452714E-05  1.90660005E-04  9.95037658E-01  3.31920196E-02
  1.10065556E-03  7.81896299E-04 -9.51394735E-04 -1.54428261E-02  2.35316600E-04
  2.98439404E-03  3.31379057E-05 -1.34649960E-04 -1.10717537E-04  2.35387164E-05
  4.78767316E-04  1.92341404E-05 -9.84537786E-04 -1.04001846E-04  1.85685346E-03
  1.96720338E-04 -5.42700015E-05 -2.90325739E-04  7.16791234E-04 -3.38835453E-04
 -6.37624061E-04  6.89025818E-04 -1.63397785E-03 -1.53533453E-03  1.16300249E-03
  5.34087755E-05 -6.63429092E-04 -1.33851068E-04 -1.55862045E-04 -9.84670347E-06
  2.24062298E-03 -1.63348621E-03  2.26723763E-04  1.15618254E-03  4.50833176E-04
 -7.11282492E-04  3.35701050E-04  1.67729378E-04 -8.59095550E-05  2.85722626E-03
  2.36576873E-04 -1.79867676E-03  4.37744264E-04 -3.72879037E-07  4.02035854E-05
 -4.27395003E-05 -3.13160163E-05  1.44534498E-05  1.89099585E-04  1.14399736E-04
  1.49992499E-04 -1.32049997E-04  2.22799616E-05  2.89356764E-04 -9.34357510E-05
  1.28082959E-05 -1.45957397E-05 -1.93655501E-03  1.37734317E-03 -4.87370585E-04
  4.83927112E-04  2.47141593E-03  1.51946129E-04  1.15566677E-05  1.37258632E-05
  1.39380654E-05 -6.95785315E-04  1.11041131E-04  2.51592800E-04  1.55757010E-04
 -9.45399235E-04  4.86272627E-03  5.03570463E-05  8.38961669E-05  2.77018995E-05
  7.87872306E-05 -2.45988384E-03 -4.20598994E-05  3.27036135E-05  3.22576344E-06
 -1.99346280E-05  4.81186984E-05 -1.12760775E-04 -2.05002952E-04  1.62454845E-04
 -9.83054232E-07 -2.03502204E-05 -3.32238893E-07 -1.65343401E-06 -3.03836745E-06
  1.45732221E-04  1.55821173E-05 -3.81722739E-05 -1.99550735E-05 -3.43582258E-07
 -4.02171587E-05 -1.85470283E-05 -9.73173412E-06  5.12951092E-05 -8.46753254E-05
 -8.67736980E-05 -9.22870876E-05 -2.11796932E-04 -3.38866396E-05 -3.76131164E-04
  1.57330561E-04  4.05654616E-06  5.92394040E-05  4.19361620E-03  1.36995666E-03
  1.15450763E-03  1.04889736E-03  3.57298366E-05 -2.66810588E-05 -2.59241678E-04
 -1.46844932E-04 -1.77047828E-04  2.47182632E-03  5.45880692E-03  1.55796877E-03
  3.02709309E-03  2.48896072E-05  2.66914580E-04 -5.79193703E-05  3.69287933E-05
 -3.05210741E-05 -2.36448932E-03 -6.08231846E-04  7.60793621E-04 -2.89129813E-04
  6.78413283E-05  2.78429987E-04 -4.57002287E-04  9.40638362E-05 -3.00713753E-04
 -2.55128858E-04  2.29211354E-03 -2.71186088E-03  1.33919866E-03  9.95423252E-01
  3.35424316E-02 -2.81944205E-04 -7.58394678E-04 -2.44231448E-04 -2.37139420E-02
  1.91094788E-04  3.43671913E-03  4.84428233E-04 -1.92820012E-05 -1.78009096E-04