 Entering Gaussian System, Link 0=g16
 Input=4znn_01_gebf_dft_10.gjf
 Output=4znn_01_gebf_dft_10.log
 Initial command:
 /work/01114/jfonner/frontera/gaussian/16rC.01/g16/l1.exe "/scratch1/08249/sa748948/lsqc/62950343/Gau-176216.inp" -scrdir="/scratch1/08249/sa748948/lsqc/62950343/"
 Entering Link 1 = /work/01114/jfonner/frontera/gaussian/16rC.01/g16/l1.exe PID=    176224.
  
 Copyright (c) 1988-2019, Gaussian, Inc.  All Rights Reserved.
  
 This is part of the Gaussian(R) 16 program.  It is based on
 the Gaussian(R) 09 system (copyright 2009, Gaussian, Inc.),
 the Gaussian(R) 03 system (copyright 2003, Gaussian, Inc.),
 the Gaussian(R) 98 system (copyright 1998, Gaussian, Inc.),
 the Gaussian(R) 94 system (copyright 1995, Gaussian, Inc.),
 the Gaussian 92(TM) system (copyright 1992, Gaussian, Inc.),
 the Gaussian 90(TM) system (copyright 1990, Gaussian, Inc.),
 the Gaussian 88(TM) system (copyright 1988, Gaussian, Inc.),
 the Gaussian 86(TM) system (copyright 1986, Carnegie Mellon
 University), and the Gaussian 82(TM) system (copyright 1983,
 Carnegie Mellon University). Gaussian is a federally registered
 trademark of Gaussian, Inc.
  
 This software contains proprietary and confidential information,
 including trade secrets, belonging to Gaussian, Inc.
  
 This software is provided under written license and may be
 used, copied, transmitted, or stored only in accord with that
 written license.
  
 The following legend is applicable only to US Government
 contracts under FAR:
  
                    RESTRICTED RIGHTS LEGEND
  
 Use, reproduction and disclosure by the US Government is
 subject to restrictions as set forth in subparagraphs (a)
 and (c) of the Commercial Computer Software - Restricted
 Rights clause in FAR 52.227-19.
  
 Gaussian, Inc.
 340 Quinnipiac St., Bldg. 40, Wallingford CT 06492
  
  
 ---------------------------------------------------------------
 Warning -- This program may not be used in any manner that
 competes with the business of Gaussian, Inc. or will provide
 assistance to any competitor of Gaussian, Inc.  The licensee
 of this program is prohibited from giving any competitor of
 Gaussian, Inc. access to this program.  By using this program,
 the user acknowledges that Gaussian, Inc. is engaged in the
 business of creating and licensing software in the field of
 computational chemistry and represents and warrants to the
 licensee that it is not a competitor of Gaussian, Inc. and that
 it will not use this program in any manner prohibited above.
 ---------------------------------------------------------------
  

 Cite this work as:
 Gaussian 16, Revision C.01,
 M. J. Frisch, G. W. Trucks, H. B. Schlegel, G. E. Scuseria, 
 M. A. Robb, J. R. Cheeseman, G. Scalmani, V. Barone, 
 G. A. Petersson, H. Nakatsuji, X. Li, M. Caricato, A. V. Marenich, 
 J. Bloino, B. G. Janesko, R. Gomperts, B. Mennucci, H. P. Hratchian, 
 J. V. Ortiz, A. F. Izmaylov, J. L. Sonnenberg, D. Williams-Young, 
 F. Ding, F. Lipparini, F. Egidi, J. Goings, B. Peng, A. Petrone, 
 T. Henderson, D. Ranasinghe, V. G. Zakrzewski, J. Gao, N. Rega, 
 G. Zheng, W. Liang, M. Hada, M. Ehara, K. Toyota, R. Fukuda, 
 J. Hasegawa, M. Ishida, T. Nakajima, Y. Honda, O. Kitao, H. Nakai, 
 T. Vreven, K. Throssell, J. A. Montgomery, Jr., J. E. Peralta, 
 F. Ogliaro, M. J. Bearpark, J. J. Heyd, E. N. Brothers, K. N. Kudin, 
 V. N. Staroverov, T. A. Keith, R. Kobayashi, J. Normand, 
 K. Raghavachari, A. P. Rendell, J. C. Burant, S. S. Iyengar, 
 J. Tomasi, M. Cossi, J. M. Millam, M. Klene, C. Adamo, R. Cammi, 
 J. W. Ochterski, R. L. Martin, K. Morokuma, O. Farkas, 
 J. B. Foresman, and D. J. Fox, Gaussian, Inc., Wallingford CT, 2019.
 
 ******************************************
 Gaussian 16:  ES64L-G16RevC.01  3-Jul-2019
                 5-Jan-2022 
 ******************************************
 %chk=4znn_01_gebf_dft_10.chk
 %nproc=56
 Will use up to   56 processors via shared memory.
 %mem=3gb
 ----------------------------
 #p int=acc2e=12 wb97xd/6-31g
 ----------------------------
 1/38=1,172=1/1;
 2/12=2,17=6,18=5,40=1/2;
 3/5=1,6=6,11=2,25=1,27=12,30=1,74=-58/1,2,3;
 4//1;
 5/5=2,38=5,87=12/2;
 6/7=2,8=2,9=2,10=2,28=1,87=12/1;
 99/5=1,9=1/99;
 Leave Link    1 at Wed Jan  5 16:30:22 2022, MaxMem=   402653184 cpu:               2.8 elap:               0.5
 (Enter /work/01114/jfonner/frontera/gaussian/16rC.01/g16/l101.exe)
 --------------
 Atom number=14
 --------------
 Symbolic Z-matrix:
 Charge =  2 Multiplicity = 1
 c                    -1.636     0.175     4.6 
 o                    -1.744     1.356     4.862 
 n                    -1.095    -0.7       5.415 
 c                    -0.572    -0.311     6.669 
 c                     0.84     -0.854     6.792 
 o                     1.027    -2.022     6.72 
 n                     1.81      0.002     7.023 
 c                     3.191    -0.429     7.101 
 c                    -1.411    -0.913     7.797 
 c                    -0.727    -0.645     9.123 
 h                    -1.93928  -0.22723   3.656 
 h                    -2.40238  -0.51045   7.79129 
 h                     3.70315   0.05968   7.90337 
 h                     3.66073  -0.2038    6.16637 
 
 ITRead=  0  0  0  0  0  0  0  0  0  0  0  0  0  0
 MicOpt= -1 -1 -1 -1 -1 -1 -1 -1 -1 -1 -1 -1 -1 -1
 NAtoms=     14 NQM=       14 NQMF=       0 NMMI=      0 NMMIF=      0
                NMic=       0 NMicF=      0.
                    Isotopes and Nuclear Properties:
 (Nuclear quadrupole moments (NQMom) in fm**2, nuclear magnetic moments (NMagM)
  in nuclear magnetons)

  Atom         1           2           3           4           5           6           7           8           9          10
 IAtWgt=          12          16          14          12          12          16          14          12          12          12
 AtmWgt=  12.0000000  15.9949146  14.0030740  12.0000000  12.0000000  15.9949146  14.0030740  12.0000000  12.0000000  12.0000000
 NucSpn=           0           0           2           0           0           0           2           0           0           0
 AtZEff=  -0.0000000  -0.0000000  -0.0000000  -0.0000000  -0.0000000  -0.0000000  -0.0000000  -0.0000000  -0.0000000  -0.0000000
 NQMom=    0.0000000   0.0000000   2.0440000   0.0000000   0.0000000   0.0000000   2.0440000   0.0000000   0.0000000   0.0000000
 NMagM=    0.0000000   0.0000000   0.4037610   0.0000000   0.0000000   0.0000000   0.4037610   0.0000000   0.0000000   0.0000000
 AtZNuc=   6.0000000   8.0000000   7.0000000   6.0000000   6.0000000   8.0000000   7.0000000   6.0000000   6.0000000   6.0000000

  Atom        11          12          13          14
 IAtWgt=           1           1           1           1
 AtmWgt=   1.0078250   1.0078250   1.0078250   1.0078250
 NucSpn=           1           1           1           1
 AtZEff=  -0.0000000  -0.0000000  -0.0000000  -0.0000000
 NQMom=    0.0000000   0.0000000   0.0000000   0.0000000
 NMagM=    2.7928460   2.7928460   2.7928460   2.7928460
 AtZNuc=   1.0000000   1.0000000   1.0000000   1.0000000
 Leave Link  101 at Wed Jan  5 16:30:23 2022, MaxMem=   402653184 cpu:               5.6 elap:               1.0
 (Enter /work/01114/jfonner/frontera/gaussian/16rC.01/g16/l202.exe)
                          Input orientation:                          
 ---------------------------------------------------------------------
 Center     Atomic      Atomic             Coordinates (Angstroms)
 Number     Number       Type             X           Y           Z
 ---------------------------------------------------------------------
      1          6           0       -1.636000    0.175000    4.600000
      2          8           0       -1.744000    1.356000    4.862000
      3          7           0       -1.095000   -0.700000    5.415000
      4          6           0       -0.572000   -0.311000    6.669000
      5          6           0        0.840000   -0.854000    6.792000
      6          8           0        1.027000   -2.022000    6.720000
      7          7           0        1.810000    0.002000    7.023000
      8          6           0        3.191000   -0.429000    7.101000
      9          6           0       -1.411000   -0.913000    7.797000
     10          6           0       -0.727000   -0.645000    9.123000
     11          1           0       -1.939276   -0.227232    3.656001
     12          1           0       -2.402375   -0.510455    7.791290
     13          1           0        3.703151    0.059677    7.903369
     14          1           0        3.660734   -0.203804    6.166368
 ---------------------------------------------------------------------
                    Distance matrix (angstroms):
                    1          2          3          4          5
     1  C    0.000000
     2  O    1.214524   0.000000
     3  N    1.312452   2.225791   0.000000
     4  C    2.376774   2.723550   1.413282   0.000000
     5  C    3.463276   3.909739   2.379931   1.517802   0.000000
     6  O    4.051269   4.747788   2.820212   2.342418   1.185064
     7  N    4.216133   4.374260   3.393743   2.428417   1.314153
     8  C    5.469895   5.705574   4.613657   3.789554   2.409005
     9  C    3.384550   3.724711   2.412291   1.529284   2.465868
    10  C    4.685745   4.816058   3.726622   2.481471   2.816510
    11  H    1.070000   1.999797   2.007583   3.309777   4.236945
    12  H    3.352836   3.535230   2.718807   2.156291   3.410220
    13  H    6.279497   6.371957   5.458144   4.465197   3.204306
    14  H    5.536460   5.774557   4.840224   4.263820   2.961538
                    6          7          8          9         10
     6  O    0.000000
     7  N    2.191227   0.000000
     8  C    2.713983   1.448795   0.000000
     9  C    2.886807   3.436734   4.679431   0.000000
    10  C    3.278270   3.356334   4.414280   1.515901   0.000000
    11  H    4.626886   5.044432   6.182916   4.230511   5.615355
    12  H    3.897826   4.312422   5.636398   1.070000   2.144396
    13  H    3.591034   2.088635   1.070000   5.206914   4.648688
    14  H    3.247907   2.049729   1.070000   5.374421   5.309288
                   11         12         13         14
    11  H    0.000000
    12  H    4.170766   0.000000
    13  H    7.068198   6.133111   0.000000
    14  H    6.136986   6.284560   1.757383   0.000000
 Stoichiometry    C6H4N2O2(2+)
 Framework group  C1[X(C6H4N2O2)]
 Deg. of freedom    36
 Full point group                 C1      NOp   1
 Largest Abelian subgroup         C1      NOp   1
 Largest concise Abelian subgroup C1      NOp   1
                         Standard orientation:                         
 ---------------------------------------------------------------------
 Center     Atomic      Atomic             Coordinates (Angstroms)
 Number     Number       Type             X           Y           Z
 ---------------------------------------------------------------------
      1          6           0       -2.444624   -0.865989    0.274745
      2          8           0       -2.696251   -0.952553   -0.910269
      3          7           0       -1.393952   -0.236906    0.746840
      4          6           0       -0.455374    0.375169   -0.114439
      5          6           0        0.933487   -0.102706    0.268210
      6          8           0        1.338096    0.090426    1.365192
      7          7           0        1.662373   -0.680571   -0.660118
      8          6           0        2.977040   -1.211587   -0.362330
      9          6           0       -0.497886    1.894136    0.057731
     10          6           0        0.640290    2.515647   -0.727276
     11          1           0       -3.048074   -1.341395    1.019552
     12          1           0       -1.440386    2.287711   -0.261159
     13          1           0        3.671334   -0.984256   -1.144107
     14          1           0        2.885815   -2.270716   -0.240571
 ---------------------------------------------------------------------
 Rotational constants (GHZ):           2.0099888           0.9854869           0.8075106
 Leave Link  202 at Wed Jan  5 16:30:24 2022, MaxMem=   402653184 cpu:               3.2 elap:               0.5
 (Enter /work/01114/jfonner/frontera/gaussian/16rC.01/g16/l301.exe)
 Standard basis: 6-31G (6D, 7F)
 Ernie: Thresh=  0.10000D-02 Tol=  0.10000D-05 Strict=F.
 There are    98 symmetry adapted cartesian basis functions of A   symmetry.
 There are    98 symmetry adapted basis functions of A   symmetry.
    98 basis functions,   236 primitive gaussians,    98 cartesian basis functions
    34 alpha electrons       34 beta electrons
       nuclear repulsion energy       453.8075121511 Hartrees.
 IExCor= 4639 DFT=T Ex+Corr=wB97XD ExCW=0 ScaHFX=  1.000000
 ScaDFX=  1.000000  1.000000  1.000000  1.000000 ScalE2=  1.000000  1.000000
 IRadAn=      5 IRanWt=     -1 IRanGd=            0 ICorTp=0 IEmpDi=121
 HFx  wShort=  0.000000 wLong=  0.200000 cFull=  0.222036 cShort=  0.000000 cLong=  0.777964
 DFx  wShort=  0.000000 wLong=  0.200000 cFull=  0.000000 cShort=  0.000000 cLong=  1.000000
 NAtoms=   14 NActive=   14 NUniq=   14 SFac= 1.00D+00 NAtFMM=   60 NAOKFM=F Big=F
 Integral buffers will be    131072 words long.
 Raffenetti 2 integral format.
 Two-electron integral symmetry is turned on.
 R6Disp:  Grimme-D2 Dispersion energy=       -0.0053852372 Hartrees.
 Nuclear repulsion after empirical dispersion term =      453.8021269139 Hartrees.
 Leave Link  301 at Wed Jan  5 16:30:24 2022, MaxMem=   402653184 cpu:               4.3 elap:               0.7
 (Enter /work/01114/jfonner/frontera/gaussian/16rC.01/g16/l302.exe)
 NPDir=0 NMtPBC=     1 NCelOv=     1 NCel=       1 NClECP=     1 NCelD=      1
         NCelK=      1 NCelE2=     1 NClLst=     1 CellRange=     0.0.
 One-electron integrals computed using PRISM.
 One-electron integral symmetry used in STVInt
 NBasis=    98 RedAO= T EigKep=  3.62D-03  NBF=    98
 NBsUse=    98 1.00D-06 EigRej= -1.00D+00 NBFU=    98
 Precomputing XC quadrature grid using
 IXCGrd= 4 IRadAn=           5 IRanWt=          -1 IRanGd=           0 AccXCQ= 1.00D-12.
 Generated NRdTot=       0 NPtTot=           0 NUsed=           0 NTot=          32
 NSgBfM=    98    98    98    98    98 MxSgAt=    14 MxSgA2=    14.
 Leave Link  302 at Wed Jan  5 16:30:33 2022, MaxMem=   402653184 cpu:              48.2 elap:               8.9
 (Enter /work/01114/jfonner/frontera/gaussian/16rC.01/g16/l303.exe)
 DipDrv:  MaxL=1.
 Leave Link  303 at Wed Jan  5 16:30:35 2022, MaxMem=   402653184 cpu:               7.8 elap:               1.5
 (Enter /work/01114/jfonner/frontera/gaussian/16rC.01/g16/l401.exe)
 ExpMin= 1.61D-01 ExpMax= 5.48D+03 ExpMxC= 8.25D+02 IAcc=3 IRadAn=         5 AccDes= 0.00D+00
 Harris functional with IExCor= 4639 and IRadAn=       5 diagonalized for initial guess.
 HarFok:  IExCor= 4639 AccDes= 0.00D+00 IRadAn=         5 IDoV= 1 UseB2=F ITyADJ=14
 ICtDFT=  3500011 ScaDFX=  1.000000  1.000000  1.000000  1.000000
 FoFCou: FMM=F IPFlag=           0 FMFlag=      100000 FMFlg1=           0
         NFxFlg=           0 DoJE=T BraDBF=F KetDBF=T FulRan=T
         wScrn=  0.000000 ICntrl=       500 IOpCl=  0 I1Cent=   200000004 NGrid=           0
         NMat0=    1 NMatS0=      1 NMatT0=    0 NMatD0=    1 NMtDS0=    0 NMtDT0=    0
 Petite list used in FoFCou.
 Harris En= -470.530779423409    
 JPrj=0 DoOrth=F DoCkMO=F.
 Leave Link  401 at Wed Jan  5 16:30:49 2022, MaxMem=   402653184 cpu:              84.9 elap:              14.3
 (Enter /work/01114/jfonner/frontera/gaussian/16rC.01/g16/l502.exe)
 Integral symmetry usage will be decided dynamically.
 Closed shell SCF:
 Using DIIS extrapolation, IDIIS=  1040.
 NGot=   402653184 LenX=   402626870 LenY=   402616825
 Requested convergence on RMS density matrix=1.00D-08 within 128 cycles.
 Requested convergence on MAX density matrix=1.00D-06.
 Requested convergence on             energy=1.00D-06.
 No special actions if energy rises.
 Fock matrices will be formed incrementally for  20 cycles.
 Integral accuracy reduced to 1.0D-05 until final iterations.

 Cycle   1  Pass 0  IDiag  1:
 FoFJK:  IHMeth= 1 ICntrl=       0 DoSepK=T KAlg= 0 I1Cent=           0 FoldK=F
 IRaf=         1 NMat=       1 IRICut=       1 DoRegI=T DoRafI=F ISym2E= 0 IDoP0=0 IntGTp=1.
 FoFCou: FMM=F IPFlag=           0 FMFlag=      100000 FMFlg1=           0
         NFxFlg=           0 DoJE=T BraDBF=F KetDBF=F FulRan=T
         wScrn=  0.000000 ICntrl=       500 IOpCl=  0 I1Cent=           0 NGrid=           0
         NMat0=    1 NMatS0=      1 NMatT0=    0 NMatD0=    1 NMtDS0=    0 NMtDT0=    0
 Symmetry not used in FoFCou.
 E= -488.932684467941    
 DIIS: error= 3.36D-02 at cycle   1 NSaved=   1.
 NSaved= 1 IEnMin= 1 EnMin= -488.932684467941     IErMin= 1 ErrMin= 3.36D-02
 ErrMax= 3.36D-02  0.00D+00 EMaxC= 1.00D-01 BMatC= 3.90D-01 BMatP= 3.90D-01
 IDIUse=3 WtCom= 6.64D-01 WtEn= 3.36D-01
 Coeff-Com:  0.100D+01
 Coeff-En:   0.100D+01
 Coeff:      0.100D+01
 Gap=     0.013 Goal=   None    Shift=    0.000
 GapD=    0.013 DampG=0.250 DampE=0.500 DampFc=0.2500 IDamp=-1.
 Damping current iteration by 2.50D-01
 RMSDP=1.50D-02 MaxDP=2.96D-01              OVMax= 7.03D-01

 Cycle   2  Pass 0  IDiag  1:
 RMSU=  3.74D-03    CP:  9.97D-01
 E= -489.016124867351     Delta-E=       -0.083440399410 Rises=F Damp=T
 DIIS: error= 2.22D-02 at cycle   2 NSaved=   2.
 NSaved= 2 IEnMin= 2 EnMin= -489.016124867351     IErMin= 2 ErrMin= 2.22D-02
 ErrMax= 2.22D-02  0.00D+00 EMaxC= 1.00D-01 BMatC= 1.52D-01 BMatP= 3.90D-01
 IDIUse=3 WtCom= 7.78D-01 WtEn= 2.22D-01
 Coeff-Com: -0.451D+00 0.145D+01
 Coeff-En:   0.189D-01 0.981D+00
 Coeff:     -0.347D+00 0.135D+01
 Gap=     0.086 Goal=   None    Shift=    0.000
 RMSDP=7.39D-03 MaxDP=1.53D-01 DE=-8.34D-02 OVMax= 5.45D-01

 Cycle   3  Pass 0  IDiag  1:
 RMSU=  7.11D-03    CP:  1.01D+00  1.50D+00
 E= -489.075220082818     Delta-E=       -0.059095215466 Rises=F Damp=F
 DIIS: error= 4.64D-02 at cycle   3 NSaved=   3.
 NSaved= 3 IEnMin= 3 EnMin= -489.075220082818     IErMin= 2 ErrMin= 2.22D-02
 ErrMax= 4.64D-02  0.00D+00 EMaxC= 1.00D-01 BMatC= 2.30D-01 BMatP= 1.52D-01
 IDIUse=2 WtCom= 0.00D+00 WtEn= 1.00D+00
 Coeff-En:   0.000D+00 0.384D+00 0.616D+00
 Coeff:      0.000D+00 0.384D+00 0.616D+00
 Gap=     0.186 Goal=   None    Shift=    0.000
 RMSDP=1.19D-02 MaxDP=3.28D-01 DE=-5.91D-02 OVMax= 7.80D-01

 Cycle   4  Pass 0  IDiag  1:
 RMSU=  4.42D-03    CP:  9.83D-01  3.00D+00 -1.26D-01
 E= -488.321967212735     Delta-E=        0.753252870082 Rises=F Damp=F
 DIIS: error= 1.03D-01 at cycle   4 NSaved=   4.
 NSaved= 4 IEnMin= 3 EnMin= -489.075220082818     IErMin= 2 ErrMin= 2.22D-02
 ErrMax= 1.03D-01  0.00D+00 EMaxC= 1.00D-01 BMatC= 8.95D-01 BMatP= 1.52D-01
 IDIUse=2 WtCom= 0.00D+00 WtEn= 1.00D+00
 Coeff-En:   0.000D+00 0.000D+00 0.735D+00 0.265D+00
 Coeff:      0.000D+00 0.000D+00 0.735D+00 0.265D+00
 Gap=     0.095 Goal=   None    Shift=    0.000
 RMSDP=7.51D-03 MaxDP=1.51D-01 DE= 7.53D-01 OVMax= 4.64D-01

 Cycle   5  Pass 0  IDiag  1:
 RMSU=  3.67D-03    CP:  1.01D+00  2.26D+00  3.64D-01  2.96D-01
 E= -489.249759433439     Delta-E=       -0.927792220704 Rises=F Damp=F
 DIIS: error= 2.41D-02 at cycle   5 NSaved=   5.
 NSaved= 5 IEnMin= 5 EnMin= -489.249759433439     IErMin= 2 ErrMin= 2.22D-02
 ErrMax= 2.41D-02  0.00D+00 EMaxC= 1.00D-01 BMatC= 5.23D-02 BMatP= 1.52D-01
 IDIUse=3 WtCom= 7.59D-01 WtEn= 2.41D-01
 Coeff-Com: -0.244D+00 0.365D+00 0.292D+00-0.997D-01 0.687D+00
 Coeff-En:   0.000D+00 0.000D+00 0.229D+00 0.000D+00 0.771D+00
 Coeff:     -0.185D+00 0.277D+00 0.276D+00-0.757D-01 0.707D+00
 Gap=     0.142 Goal=   None    Shift=    0.000
 RMSDP=2.23D-03 MaxDP=5.89D-02 DE=-9.28D-01 OVMax= 1.18D-01

 Cycle   6  Pass 0  IDiag  1:
 RMSU=  7.54D-04    CP:  1.01D+00  1.99D+00  5.87D-01  1.32D-01  8.47D-01
 E= -489.295823885780     Delta-E=       -0.046064452340 Rises=F Damp=F
 DIIS: error= 2.39D-03 at cycle   6 NSaved=   6.
 NSaved= 6 IEnMin= 6 EnMin= -489.295823885780     IErMin= 6 ErrMin= 2.39D-03
 ErrMax= 2.39D-03  0.00D+00 EMaxC= 1.00D-01 BMatC= 1.18D-03 BMatP= 5.23D-02
 IDIUse=3 WtCom= 9.76D-01 WtEn= 2.39D-02
 Coeff-Com: -0.581D-01 0.753D-01 0.339D-01-0.294D-01 0.211D+00 0.767D+00
 Coeff-En:   0.000D+00 0.000D+00 0.000D+00 0.000D+00 0.000D+00 0.100D+01
 Coeff:     -0.567D-01 0.735D-01 0.330D-01-0.287D-01 0.206D+00 0.773D+00
 Gap=     0.140 Goal=   None    Shift=    0.000
 RMSDP=5.31D-04 MaxDP=9.00D-03 DE=-4.61D-02 OVMax= 1.93D-02

 Cycle   7  Pass 0  IDiag  1:
 RMSU=  3.76D-04    CP:  1.01D+00  2.05D+00  5.64D-01  1.47D-01  9.11D-01
                    CP:  9.94D-01
 E= -489.296797791196     Delta-E=       -0.000973905417 Rises=F Damp=F
 DIIS: error= 2.37D-03 at cycle   7 NSaved=   7.
 NSaved= 7 IEnMin= 7 EnMin= -489.296797791196     IErMin= 7 ErrMin= 2.37D-03
 ErrMax= 2.37D-03  0.00D+00 EMaxC= 1.00D-01 BMatC= 5.18D-04 BMatP= 1.18D-03
 IDIUse=3 WtCom= 9.76D-01 WtEn= 2.37D-02
 Coeff-Com: -0.110D-02-0.527D-02-0.168D-01-0.416D-02 0.258D-01 0.515D+00
 Coeff-Com:  0.486D+00
 Coeff-En:   0.000D+00 0.000D+00 0.000D+00 0.000D+00 0.000D+00 0.202D+00
 Coeff-En:   0.798D+00
 Coeff:     -0.108D-02-0.515D-02-0.164D-01-0.406D-02 0.252D-01 0.508D+00
 Coeff:      0.494D+00
 Gap=     0.144 Goal=   None    Shift=    0.000
 RMSDP=2.38D-04 MaxDP=3.79D-03 DE=-9.74D-04 OVMax= 8.95D-03

 Cycle   8  Pass 0  IDiag  1:
 RMSU=  1.53D-04    CP:  1.01D+00  2.04D+00  5.71D-01  1.47D-01  9.16D-01
                    CP:  1.21D+00  8.72D-01
 E= -489.297352454012     Delta-E=       -0.000554662816 Rises=F Damp=F
 DIIS: error= 5.61D-04 at cycle   8 NSaved=   8.
 NSaved= 8 IEnMin= 8 EnMin= -489.297352454012     IErMin= 8 ErrMin= 5.61D-04
 ErrMax= 5.61D-04  0.00D+00 EMaxC= 1.00D-01 BMatC= 2.50D-05 BMatP= 5.18D-04
 IDIUse=3 WtCom= 9.94D-01 WtEn= 5.61D-03
 Coeff-Com:  0.281D-03-0.264D-03-0.681D-02-0.325D-03-0.234D-01 0.260D-01
 Coeff-Com:  0.135D+00 0.870D+00
 Coeff-En:   0.000D+00 0.000D+00 0.000D+00 0.000D+00 0.000D+00 0.000D+00
 Coeff-En:   0.000D+00 0.100D+01
 Coeff:      0.279D-03-0.263D-03-0.678D-02-0.323D-03-0.232D-01 0.259D-01
 Coeff:      0.134D+00 0.870D+00
 Gap=     0.143 Goal=   None    Shift=    0.000
 RMSDP=1.62D-04 MaxDP=1.52D-03 DE=-5.55D-04 OVMax= 7.24D-03

 Cycle   9  Pass 0  IDiag  1:
 RMSU=  9.30D-05    CP:  1.01D+00  2.03D+00  5.73D-01  1.46D-01  9.21D-01
                    CP:  1.30D+00  1.12D+00  1.38D+00
 E= -489.297492707755     Delta-E=       -0.000140253743 Rises=F Damp=F
 DIIS: error= 4.31D-04 at cycle   9 NSaved=   9.
 NSaved= 9 IEnMin= 9 EnMin= -489.297492707755     IErMin= 9 ErrMin= 4.31D-04
 ErrMax= 4.31D-04  0.00D+00 EMaxC= 1.00D-01 BMatC= 1.19D-05 BMatP= 2.50D-05
 IDIUse=3 WtCom= 9.96D-01 WtEn= 4.31D-03
 Coeff-Com: -0.122D-02 0.416D-02 0.307D-03 0.575D-04-0.201D-01-0.150D+00
 Coeff-Com: -0.946D-01 0.513D+00 0.748D+00
 Coeff-En:   0.000D+00 0.000D+00 0.000D+00 0.000D+00 0.000D+00 0.000D+00
 Coeff-En:   0.000D+00 0.000D+00 0.100D+01
 Coeff:     -0.121D-02 0.415D-02 0.306D-03 0.573D-04-0.200D-01-0.149D+00
 Coeff:     -0.942D-01 0.511D+00 0.749D+00
 Gap=     0.144 Goal=   None    Shift=    0.000
 RMSDP=1.56D-04 MaxDP=1.92D-03 DE=-1.40D-04 OVMax= 7.54D-03

 Cycle  10  Pass 0  IDiag  1:
 RMSU=  5.81D-05    CP:  1.01D+00  2.03D+00  5.75D-01  1.44D-01  9.26D-01
                    CP:  1.38D+00  1.34D+00  1.91D+00  1.59D+00
 E= -489.297593011354     Delta-E=       -0.000100303599 Rises=F Damp=F
 DIIS: error= 3.86D-04 at cycle  10 NSaved=  10.
 NSaved=10 IEnMin=10 EnMin= -489.297593011354     IErMin=10 ErrMin= 3.86D-04
 ErrMax= 3.86D-04  0.00D+00 EMaxC= 1.00D-01 BMatC= 5.97D-06 BMatP= 1.19D-05
 IDIUse=3 WtCom= 9.96D-01 WtEn= 3.86D-03
 Coeff-Com:  0.118D-02-0.183D-02 0.524D-03 0.242D-03 0.527D-02-0.512D-01
 Coeff-Com: -0.994D-01-0.112D+00 0.341D+00 0.916D+00
 Coeff-En:   0.000D+00 0.000D+00 0.000D+00 0.000D+00 0.000D+00 0.000D+00
 Coeff-En:   0.000D+00 0.000D+00 0.000D+00 0.100D+01
 Coeff:      0.117D-02-0.182D-02 0.522D-03 0.241D-03 0.525D-02-0.510D-01
 Coeff:     -0.990D-01-0.112D+00 0.340D+00 0.916D+00
 Gap=     0.144 Goal=   None    Shift=    0.000
 RMSDP=1.56D-04 MaxDP=1.76D-03 DE=-1.00D-04 OVMax= 9.95D-03

 Cycle  11  Pass 0  IDiag  1:
 RMSU=  3.80D-05    CP:  1.01D+00  2.03D+00  5.75D-01  1.46D-01  9.29D-01
                    CP:  1.44D+00  1.50D+00  2.41D+00  2.57D+00  1.95D+00
 E= -489.297682975955     Delta-E=       -0.000089964602 Rises=F Damp=F
 DIIS: error= 4.55D-04 at cycle  11 NSaved=  11.
 NSaved=11 IEnMin=11 EnMin= -489.297682975955     IErMin=10 ErrMin= 3.86D-04
 ErrMax= 4.55D-04  0.00D+00 EMaxC= 1.00D-01 BMatC= 3.22D-06 BMatP= 5.97D-06
 IDIUse=3 WtCom= 9.96D-01 WtEn= 3.86D-03
 Coeff-Com:  0.271D-03-0.700D-03 0.408D-03-0.759D-04 0.649D-02 0.826D-02
 Coeff-Com: -0.365D-01-0.127D+00 0.313D-01 0.375D+00 0.743D+00
 Coeff-En:   0.000D+00 0.000D+00 0.000D+00 0.000D+00 0.000D+00 0.000D+00
 Coeff-En:   0.000D+00 0.000D+00 0.000D+00 0.000D+00 0.100D+01
 Coeff:      0.270D-03-0.698D-03 0.407D-03-0.756D-04 0.646D-02 0.823D-02
 Coeff:     -0.363D-01-0.126D+00 0.312D-01 0.373D+00 0.744D+00
 Gap=     0.144 Goal=   None    Shift=    0.000
 RMSDP=1.09D-04 MaxDP=1.36D-03 DE=-9.00D-05 OVMax= 7.31D-03

 Cycle  12  Pass 0  IDiag  1:
 RMSU=  3.11D-05    CP:  1.01D+00  2.03D+00  5.74D-01  1.47D-01  9.29D-01
                    CP:  1.46D+00  1.58D+00  2.69D+00  3.00D+00  2.87D+00
                    CP:  1.92D+00
 E= -489.297743396547     Delta-E=       -0.000060420591 Rises=F Damp=F
 DIIS: error= 4.85D-04 at cycle  12 NSaved=  12.
 NSaved=12 IEnMin=12 EnMin= -489.297743396547     IErMin=10 ErrMin= 3.86D-04
 ErrMax= 4.85D-04  0.00D+00 EMaxC= 1.00D-01 BMatC= 3.16D-06 BMatP= 3.22D-06
 IDIUse=3 WtCom= 9.96D-01 WtEn= 3.86D-03
 Coeff-Com:  0.689D-03-0.955D-03-0.299D-04-0.538D-04 0.183D-02 0.184D-01
 Coeff-Com: -0.556D-02-0.159D-01-0.827D-01 0.212D-02 0.273D+00 0.810D+00
 Coeff-En:   0.000D+00 0.000D+00 0.000D+00 0.000D+00 0.000D+00 0.000D+00
 Coeff-En:   0.000D+00 0.000D+00 0.000D+00 0.000D+00 0.000D+00 0.100D+01
 Coeff:      0.686D-03-0.951D-03-0.298D-04-0.536D-04 0.182D-02 0.183D-01
 Coeff:     -0.554D-02-0.158D-01-0.824D-01 0.211D-02 0.272D+00 0.810D+00
 Gap=     0.143 Goal=   None    Shift=    0.000
 RMSDP=1.18D-04 MaxDP=1.52D-03 DE=-6.04D-05 OVMax= 8.16D-03

 Cycle  13  Pass 0  IDiag  1:
 RMSU=  5.79D-05    CP:  1.01D+00  2.03D+00  5.74D-01  1.48D-01  9.29D-01
                    CP:  1.49D+00  1.66D+00  2.96D+00  3.00D+00  3.00D+00
                    CP:  3.00D+00  3.00D+00
 E= -489.297809576560     Delta-E=       -0.000066180013 Rises=F Damp=F
 DIIS: error= 5.11D-04 at cycle  13 NSaved=  13.
 NSaved=13 IEnMin=13 EnMin= -489.297809576560     IErMin=10 ErrMin= 3.86D-04
 ErrMax= 5.11D-04  0.00D+00 EMaxC= 1.00D-01 BMatC= 3.47D-06 BMatP= 3.16D-06
 IDIUse=3 WtCom= 9.96D-01 WtEn= 3.86D-03
 Coeff-Com: -0.568D-03 0.703D-03 0.228D-03-0.211D-03 0.461D-02 0.463D-01
 Coeff-Com:  0.132D-01-0.105D+00-0.159D+00-0.135D+00 0.932D+00 0.154D+01
 Coeff-Com: -0.114D+01
 Coeff-En:   0.000D+00 0.000D+00 0.000D+00 0.000D+00 0.000D+00 0.000D+00
 Coeff-En:   0.000D+00 0.000D+00 0.000D+00 0.000D+00 0.000D+00 0.000D+00
 Coeff-En:   0.100D+01
 Coeff:     -0.566D-03 0.700D-03 0.227D-03-0.210D-03 0.460D-02 0.461D-01
 Coeff:      0.132D-01-0.105D+00-0.159D+00-0.134D+00 0.928D+00 0.154D+01
 Coeff:     -0.113D+01
 Gap=     0.143 Goal=   None    Shift=    0.000
 RMSDP=1.35D-04 MaxDP=1.77D-03 DE=-6.62D-05 OVMax= 9.68D-03

 Cycle  14  Pass 0  IDiag  1:
 RMSU=  1.14D-05    CP:  1.01D+00  2.03D+00  5.74D-01  1.47D-01  9.30D-01
                    CP:  1.46D+00  1.59D+00  2.67D+00  3.00D+00  2.69D+00
                    CP:  1.60D+00  6.74D-01  2.69D-02
 E= -489.297734698229     Delta-E=        0.000074878331 Rises=F Damp=F
 DIIS: error= 4.78D-04 at cycle  14 NSaved=  14.
 NSaved=14 IEnMin=13 EnMin= -489.297809576560     IErMin=10 ErrMin= 3.86D-04
 ErrMax= 4.78D-04  0.00D+00 EMaxC= 1.00D-01 BMatC= 3.41D-06 BMatP= 3.16D-06
 IDIUse=3 WtCom= 9.96D-01 WtEn= 3.86D-03
 Rare condition: small coef for last iteration:  0.000D+00
 Coeff-Com: -0.394D-03 0.599D-03 0.139D-04-0.321D-03 0.205D-02 0.628D-01
 Coeff-Com:  0.422D-01-0.190D-01-0.275D+00-0.468D+00 0.583D+00 0.261D+01
 Coeff-Com: -0.562D+01 0.409D+01
 Coeff-En:   0.000D+00 0.000D+00 0.000D+00 0.000D+00 0.000D+00 0.000D+00
 Coeff-En:   0.000D+00 0.000D+00 0.000D+00 0.000D+00 0.000D+00 0.000D+00
 Coeff-En:   0.000D+00 0.100D+01
 Coeff:     -0.394D-03 0.599D-03 0.139D-04-0.321D-03 0.205D-02 0.628D-01
 Coeff:      0.422D-01-0.190D-01-0.275D+00-0.468D+00 0.583D+00 0.261D+01
 Coeff:     -0.562D+01 0.409D+01
 Gap=     0.144 Goal=   None    Shift=    0.000
 RMSDP=5.21D-04 MaxDP=6.91D-03 DE= 7.49D-05 OVMax= 3.90D-02

 Cycle  15  Pass 0  IDiag  1:
 RMSU=  1.23D-04    CP:  1.01D+00  2.03D+00  5.74D-01  1.44D-01  9.29D-01
                    CP:  1.37D+00  1.33D+00  1.61D+00  1.64D-01 -2.03D+00
                    CP: -3.00D+00 -1.95D+00  2.61D-01  3.00D+00
 E= -489.297478882858     Delta-E=        0.000255815371 Rises=F Damp=F
 DIIS: error= 4.00D-04 at cycle  15 NSaved=  15.
 NSaved=15 IEnMin=13 EnMin= -489.297809576560     IErMin=10 ErrMin= 3.86D-04
 ErrMax= 4.00D-04  0.00D+00 EMaxC= 1.00D-01 BMatC= 6.14D-06 BMatP= 3.16D-06
 IDIUse=3 WtCom= 9.96D-01 WtEn= 3.86D-03
 Rare condition: small coef for last iteration:  0.000D+00
 Coeff-Com:  0.224D-02-0.294D-02-0.797D-03-0.574D-04-0.270D-02 0.305D-01
 Coeff-Com:  0.131D-01 0.127D+00-0.296D+00-0.123D+00-0.573D+00 0.227D+01
 Coeff-Com: -0.448D+01 0.332D+01 0.710D+00
 Coeff-En:   0.000D+00 0.000D+00 0.000D+00 0.000D+00 0.000D+00 0.000D+00
 Coeff-En:   0.000D+00 0.000D+00 0.000D+00 0.000D+00 0.000D+00 0.000D+00
 Coeff-En:   0.000D+00 0.000D+00 0.100D+01
 Coeff:      0.224D-02-0.294D-02-0.797D-03-0.574D-04-0.270D-02 0.305D-01
 Coeff:      0.131D-01 0.127D+00-0.296D+00-0.123D+00-0.573D+00 0.227D+01
 Coeff:     -0.448D+01 0.332D+01 0.710D+00
 Gap=     0.145 Goal=   None    Shift=    0.000
 RMSDP=2.29D-04 MaxDP=3.07D-03 DE= 2.56D-04 OVMax= 1.83D-02

 Problem detected with inexpensive integrals.
 Switching to full accuracy and repeating last cycle.
 Cycle  16  Pass 1  IDiag  1:
 E= -489.297489410701     Delta-E=       -0.000010527843 Rises=F Damp=F
 DIIS: error= 4.00D-04 at cycle   1 NSaved=   1.
 NSaved= 1 IEnMin= 1 EnMin= -489.297489410701     IErMin= 1 ErrMin= 4.00D-04
 ErrMax= 4.00D-04  0.00D+00 EMaxC= 1.00D-01 BMatC= 6.16D-06 BMatP= 6.16D-06
 IDIUse=3 WtCom= 9.96D-01 WtEn= 4.00D-03
 Coeff-Com:  0.100D+01
 Coeff-En:   0.100D+01
 Coeff:      0.100D+01
 Gap=     0.145 Goal=   None    Shift=    0.000
 RMSDP=1.19D-04 MaxDP=1.70D-03 DE=-1.05D-05 OVMax= 6.94D-03

 Cycle  17  Pass 1  IDiag  1:
 RMSU=  1.19D-04    CP:  1.00D+00
 E= -489.297519766558     Delta-E=       -0.000030355857 Rises=F Damp=F
 DIIS: error= 4.43D-04 at cycle   2 NSaved=   2.
 NSaved= 2 IEnMin= 2 EnMin= -489.297519766558     IErMin= 1 ErrMin= 4.00D-04
 ErrMax= 4.43D-04  0.00D+00 EMaxC= 1.00D-01 BMatC= 2.24D-05 BMatP= 6.16D-06
 IDIUse=3 WtCom= 3.22D-01 WtEn= 6.78D-01
 Coeff-Com:  0.696D+00 0.304D+00
 Coeff-En:   0.000D+00 0.100D+01
 Coeff:      0.224D+00 0.776D+00
 Gap=     0.142 Goal=   None    Shift=    0.000
 RMSDP=1.33D-04 MaxDP=2.02D-03 DE=-3.04D-05 OVMax= 7.38D-03

 Cycle  18  Pass 1  IDiag  1:
 RMSU=  1.33D-04    CP:  1.00D+00  1.04D+00
 E= -489.297521821113     Delta-E=       -0.000002054555 Rises=F Damp=F
 DIIS: error= 6.70D-04 at cycle   3 NSaved=   3.
 NSaved= 3 IEnMin= 3 EnMin= -489.297521821113     IErMin= 1 ErrMin= 4.00D-04
 ErrMax= 6.70D-04  0.00D+00 EMaxC= 1.00D-01 BMatC= 6.08D-05 BMatP= 6.16D-06
 IDIUse=3 WtCom= 2.79D-01 WtEn= 7.21D-01
 Coeff-Com:  0.396D+00 0.439D+00 0.165D+00
 Coeff-En:   0.000D+00 0.488D+00 0.512D+00
 Coeff:      0.110D+00 0.474D+00 0.416D+00
 Gap=     0.144 Goal=   None    Shift=    0.000
 RMSDP=1.08D-04 MaxDP=2.62D-03 DE=-2.05D-06 OVMax= 6.56D-03

 Cycle  19  Pass 1  IDiag  1:
 RMSU=  3.34D-05    CP:  1.00D+00  1.76D+00  5.78D-01
 E= -489.297585227606     Delta-E=       -0.000063406493 Rises=F Damp=F
 DIIS: error= 4.34D-04 at cycle   4 NSaved=   4.
 NSaved= 4 IEnMin= 4 EnMin= -489.297585227606     IErMin= 1 ErrMin= 4.00D-04
 ErrMax= 4.34D-04  0.00D+00 EMaxC= 1.00D-01 BMatC= 1.51D-05 BMatP= 6.16D-06
 IDIUse=3 WtCom= 3.24D-01 WtEn= 6.76D-01
 Coeff-Com:  0.250D+00 0.411D+00 0.228D+00 0.111D+00
 Coeff-En:   0.000D+00 0.000D+00 0.886D-01 0.911D+00
 Coeff:      0.811D-01 0.133D+00 0.134D+00 0.652D+00
 Gap=     0.143 Goal=   None    Shift=    0.000
 RMSDP=9.59D-05 MaxDP=1.90D-03 DE=-6.34D-05 OVMax= 5.88D-03

 Cycle  20  Pass 1  IDiag  1:
 RMSU=  1.86D-05    CP:  1.00D+00  1.91D+00  1.24D+00  2.15D-01
 E= -489.297604806887     Delta-E=       -0.000019579281 Rises=F Damp=F
 DIIS: error= 5.66D-04 at cycle   5 NSaved=   5.
 NSaved= 5 IEnMin= 5 EnMin= -489.297604806887     IErMin= 1 ErrMin= 4.00D-04
 ErrMax= 5.66D-04  0.00D+00 EMaxC= 1.00D-01 BMatC= 2.75D-05 BMatP= 6.16D-06
 IDIUse=3 WtCom= 2.96D-01 WtEn= 7.04D-01
 Coeff-Com:  0.304D+00 0.518D+00 0.288D+00-0.727D-02-0.103D+00
 Coeff-En:   0.000D+00 0.000D+00 0.000D+00 0.249D+00 0.751D+00
 Coeff:      0.900D-01 0.153D+00 0.852D-01 0.173D+00 0.499D+00
 Gap=     0.144 Goal=   None    Shift=    0.000
 RMSDP=9.56D-05 MaxDP=2.59D-03 DE=-1.96D-05 OVMax= 5.58D-03

 Cycle  21  Pass 1  IDiag  1:
 RMSU=  8.38D-06    CP:  1.00D+00  2.43D+00  8.76D-01  1.75D+00  1.80D-01
 E= -489.297613803857     Delta-E=       -0.000008996970 Rises=F Damp=F
 DIIS: error= 5.86D-04 at cycle   6 NSaved=   6.
 NSaved= 6 IEnMin= 6 EnMin= -489.297613803857     IErMin= 1 ErrMin= 4.00D-04
 ErrMax= 5.86D-04  0.00D+00 EMaxC= 1.00D-01 BMatC= 3.31D-05 BMatP= 6.16D-06
 IDIUse=3 WtCom= 2.96D-01 WtEn= 7.04D-01
 Coeff-Com:  0.513D-01 0.829D+00 0.990D+00 0.188D+01-0.118D+01-0.158D+01
 Coeff-En:   0.000D+00 0.000D+00 0.000D+00 0.000D+00 0.435D+00 0.565D+00
 Coeff:      0.152D-01 0.245D+00 0.293D+00 0.558D+00-0.412D-01-0.700D-01
 Gap=     0.143 Goal=   None    Shift=    0.000
 RMSDP=7.84D-05 MaxDP=2.00D-03 DE=-9.00D-06 OVMax= 4.75D-03

 Cycle  22  Pass 1  IDiag  1:
 RMSU=  4.90D-07    CP:  1.00D+00  1.90D+00  1.03D+00  5.22D-01  6.49D-01
                    CP: -1.01D-01
 E= -489.297616105097     Delta-E=       -0.000002301239 Rises=F Damp=F
 DIIS: error= 4.47D-04 at cycle   7 NSaved=   7.
 NSaved= 7 IEnMin= 7 EnMin= -489.297616105097     IErMin= 1 ErrMin= 4.00D-04
 ErrMax= 4.47D-04  0.00D+00 EMaxC= 1.00D-01 BMatC= 5.73D-06 BMatP= 6.16D-06
 IDIUse=3 WtCom= 9.96D-01 WtEn= 4.47D-03
 Large coefficients: NSaved=  7 BigCof=   13.11 CofMax=   10.00 Det=-4.74D-10
 Inversion failed.  Reducing to  6 matrices.
 Large coefficients: NSaved=  6 BigCof=   10.57 CofMax=   10.00 Det=-6.29D-10
 Inversion failed.  Reducing to  5 matrices.
 Rare condition: small coef for last iteration:  0.000D+00
 Coeff-Com:  0.922D-01 0.373D+01 0.396D+01-0.761D+00-0.602D+01
 Coeff-En:   0.000D+00 0.000D+00 0.179D+00 0.380D+00 0.442D+00
 Coeff:      0.922D-01 0.373D+01 0.396D+01-0.761D+00-0.602D+01
 Gap=     0.144 Goal=   None    Shift=    0.000
 RMSDP=5.47D-05 MaxDP=7.34D-04 DE=-2.30D-06 OVMax= 3.77D-03

 Cycle  23  Pass 1  IDiag  1:
 RMSU=  3.01D-06    CP:  1.00D+00  1.59D+00  7.36D-01  5.64D-01  1.33D-01
                    CP:  6.63D-02  3.00D+00
 E= -489.297593615543     Delta-E=        0.000022489554 Rises=F Damp=F
 DIIS: error= 3.84D-04 at cycle   8 NSaved=   6.
 NSaved= 6 IEnMin= 5 EnMin= -489.297616105097     IErMin= 6 ErrMin= 3.84D-04
 ErrMax= 3.84D-04  0.00D+00 EMaxC= 1.00D-01 BMatC= 2.44D-06 BMatP= 5.73D-06
 IDIUse=3 WtCom= 9.96D-01 WtEn= 3.84D-03
 EnCoef did   100 forward-backward iterations
 Rare condition: small coef for last iteration:  0.000D+00
 Coeff-Com:  0.210D+00 0.641D+01 0.554D+01-0.225D+01-0.994D+01 0.103D+01
 Coeff-En:   0.000D+00 0.249D-01 0.000D+00 0.000D+00 0.000D+00 0.975D+00
 Coeff:      0.210D+00 0.641D+01 0.554D+01-0.225D+01-0.994D+01 0.103D+01
 Gap=     0.144 Goal=   None    Shift=    0.000
 RMSDP=2.38D-04 MaxDP=2.90D-03 DE= 2.25D-05 OVMax= 1.64D-02

 Cycle  24  Pass 1  IDiag  1:
 RMSU=  8.31D-06    CP:  1.00D+00 -3.01D-02 -2.48D-01 -5.57D-01 -1.31D+00
                    CP: -1.92D+00  3.00D+00  2.39D-01
 E= -489.297484856757     Delta-E=        0.000108758786 Rises=F Damp=F
 DIIS: error= 4.10D-04 at cycle   9 NSaved=   7.
 NSaved= 7 IEnMin= 5 EnMin= -489.297616105097     IErMin= 6 ErrMin= 3.84D-04
 ErrMax= 4.10D-04  0.00D+00 EMaxC= 1.00D-01 BMatC= 2.15D-06 BMatP= 2.44D-06
 IDIUse=3 WtCom= 9.96D-01 WtEn= 3.84D-03
 Rare condition: small coef for last iteration:  0.000D+00
 Coeff-Com: -0.100D+00 0.805D+00 0.974D-01-0.767D+00-0.619D+00-0.364D+00
 Coeff-Com:  0.195D+01
 Coeff-En:   0.000D+00 0.000D+00 0.000D+00 0.000D+00 0.000D+00 0.000D+00
 Coeff-En:   0.100D+01
 Coeff:     -0.100D+00 0.805D+00 0.974D-01-0.767D+00-0.619D+00-0.364D+00
 Coeff:      0.195D+01
 Gap=     0.144 Goal=   None    Shift=    0.000
 RMSDP=2.37D-04 MaxDP=3.03D-03 DE= 1.09D-04 OVMax= 1.79D-02

 Cycle  25  Pass 1  IDiag  1:
 RMSU=  2.97D-05    CP:  1.00D+00 -1.55D+00 -1.26D+00 -1.87D+00 -3.00D+00
                    CP: -3.00D+00  3.00D+00 -1.10D+00  3.00D+00
 E= -489.297391280977     Delta-E=        0.000093575779 Rises=F Damp=F
 DIIS: error= 4.25D-04 at cycle  10 NSaved=   8.
 NSaved= 8 IEnMin= 5 EnMin= -489.297616105097     IErMin= 6 ErrMin= 3.84D-04
 ErrMax= 4.25D-04  0.00D+00 EMaxC= 1.00D-01 BMatC= 2.16D-06 BMatP= 2.15D-06
 IDIUse=3 WtCom= 9.96D-01 WtEn= 3.84D-03
 Rare condition: small coef for last iteration:  0.000D+00
 Coeff-Com: -0.635D+00-0.675D+01-0.447D+01 0.273D+01 0.948D+01-0.251D+01
 Coeff-Com:  0.169D+01 0.146D+01
 Coeff-En:   0.000D+00 0.000D+00 0.000D+00 0.000D+00 0.000D+00 0.000D+00
 Coeff-En:   0.000D+00 0.100D+01
 Coeff:     -0.635D+00-0.675D+01-0.447D+01 0.273D+01 0.948D+01-0.251D+01
 Coeff:      0.169D+01 0.146D+01
 Gap=     0.144 Goal=   None    Shift=    0.000
 RMSDP=1.36D-04 MaxDP=1.80D-03 DE= 9.36D-05 OVMax= 1.17D-02

 Cycle  26  Pass 1  IDiag  1:
 RMSU=  4.08D-05    CP:  1.00D+00 -2.10D+00 -1.81D+00 -2.99D+00 -3.00D+00
                    CP: -3.00D+00  3.00D+00 -3.00D+00  3.00D+00  3.00D+00
 E= -489.297363986629     Delta-E=        0.000027294348 Rises=F Damp=F
 DIIS: error= 4.30D-04 at cycle  11 NSaved=   9.
 NSaved= 9 IEnMin= 5 EnMin= -489.297616105097     IErMin= 6 ErrMin= 3.84D-04
 ErrMax= 4.30D-04  0.00D+00 EMaxC= 1.00D-01 BMatC= 1.71D-06 BMatP= 2.15D-06
 IDIUse=3 WtCom= 9.96D-01 WtEn= 3.84D-03
 Large coefficients: NSaved=  9 BigCof=   20.79 CofMax=   10.00 Det=-3.09D-10
 Inversion failed.  Reducing to  8 matrices.
 Large coefficients: NSaved=  8 BigCof=   21.04 CofMax=   10.00 Det=-3.13D-10
 Inversion failed.  Reducing to  7 matrices.
 Large coefficients: NSaved=  7 BigCof=   18.94 CofMax=   10.00 Det=-3.56D-10
 Inversion failed.  Reducing to  6 matrices.
 Rare condition: small coef for last iteration:  0.000D+00
 Coeff-Com:  0.682D+00 0.324D+00-0.655D+00-0.642D+00 0.139D+00 0.115D+01
 Coeff-En:   0.000D+00 0.000D+00 0.000D+00 0.000D+00 0.000D+00 0.100D+01
 Coeff:      0.682D+00 0.324D+00-0.655D+00-0.642D+00 0.139D+00 0.115D+01
 Gap=     0.144 Goal=   None    Shift=    0.000
 RMSDP=7.35D-05 MaxDP=8.96D-04 DE= 2.73D-05 OVMax= 5.83D-03

 Cycle  27  Pass 1  IDiag  1:
 RMSU=  4.57D-05    CP:  1.00D+00 -2.31D+00 -1.98D+00 -3.00D+00 -3.00D+00
                    CP: -3.00D+00  3.00D+00 -3.00D+00  3.00D+00  3.00D+00
                    CP:  2.15D+00
 E= -489.297361369214     Delta-E=        0.000002617415 Rises=F Damp=F
 DIIS: error= 4.17D-04 at cycle  12 NSaved=   7.
 NSaved= 7 IEnMin= 3 EnMin= -489.297616105097     IErMin= 4 ErrMin= 3.84D-04
 ErrMax= 4.17D-04  0.00D+00 EMaxC= 1.00D-01 BMatC= 1.61D-06 BMatP= 1.71D-06
 IDIUse=3 WtCom= 9.96D-01 WtEn= 3.84D-03
 Rare condition: small coef for last iteration:  0.000D+00
 Coeff-Com:  0.155D+01 0.824D+00-0.165D+01-0.757D+00-0.126D+01 0.574D+00
 Coeff-Com:  0.171D+01
 Coeff-En:   0.000D+00 0.000D+00 0.000D+00 0.000D+00 0.000D+00 0.000D+00
 Coeff-En:   0.100D+01
 Coeff:      0.155D+01 0.824D+00-0.165D+01-0.757D+00-0.126D+01 0.574D+00
 Coeff:      0.171D+01
 Gap=     0.143 Goal=   None    Shift=    0.000
 RMSDP=1.85D-04 MaxDP=2.51D-03 DE= 2.62D-06 OVMax= 1.11D-02

 Cycle  28  Pass 1  IDiag  1:
 RMSU=  1.04D-04    CP:  1.00D+00 -2.19D+00 -2.18D+00 -3.00D+00 -3.00D+00
                    CP: -3.00D+00  3.00D+00 -3.00D+00  3.00D+00  3.00D+00
                    CP:  3.00D+00  3.00D+00
 E= -489.297389199881     Delta-E=       -0.000027830667 Rises=F Damp=F
 DIIS: error= 3.95D-04 at cycle  13 NSaved=   8.
 NSaved= 8 IEnMin= 3 EnMin= -489.297616105097     IErMin= 4 ErrMin= 3.84D-04
 ErrMax= 3.95D-04  0.00D+00 EMaxC= 1.00D-01 BMatC= 1.42D-06 BMatP= 1.61D-06
 IDIUse=3 WtCom= 9.96D-01 WtEn= 3.84D-03
 Coeff-Com:  0.262D+01 0.158D+01-0.254D+01-0.106D+01-0.214D+01-0.744D+00
 Coeff-Com:  0.172D+01 0.157D+01
 Coeff-En:   0.000D+00 0.000D+00 0.000D+00 0.000D+00 0.000D+00 0.000D+00
 Coeff-En:   0.000D+00 0.100D+01
 Coeff:      0.261D+01 0.157D+01-0.253D+01-0.106D+01-0.213D+01-0.741D+00
 Coeff:      0.172D+01 0.156D+01
 Gap=     0.142 Goal=   None    Shift=    0.000
 RMSDP=4.38D-04 MaxDP=8.32D-03 DE=-2.78D-05 OVMax= 3.17D-02

 Cycle  29  Pass 1  IDiag  1:
 RMSU=  1.70D-04    CP:  1.00D+00  2.71D-02 -1.29D+00 -3.00D+00 -3.00D+00
                    CP: -3.00D+00  3.00D+00 -3.00D+00  3.00D+00  3.00D+00
                    CP:  3.00D+00  3.00D+00  3.00D+00
 E= -489.297506643023     Delta-E=       -0.000117443142 Rises=F Damp=F
 DIIS: error= 2.85D-04 at cycle  14 NSaved=   9.
 NSaved= 9 IEnMin= 3 EnMin= -489.297616105097     IErMin= 9 ErrMin= 2.85D-04
 ErrMax= 2.85D-04  0.00D+00 EMaxC= 1.00D-01 BMatC= 3.28D-06 BMatP= 1.42D-06
 IDIUse=3 WtCom= 9.96D-01 WtEn= 3.84D-03
 Coeff-Com:  0.281D+01 0.169D+01-0.262D+01-0.144D+01-0.173D+01-0.759D+00
 Coeff-Com:  0.156D+01 0.130D+01 0.190D+00
 Coeff-En:   0.000D+00 0.000D+00 0.000D+00 0.000D+00 0.000D+00 0.000D+00
 Coeff-En:   0.000D+00 0.000D+00 0.100D+01
 Coeff:      0.280D+01 0.169D+01-0.261D+01-0.143D+01-0.172D+01-0.756D+00
 Coeff:      0.155D+01 0.129D+01 0.193D+00
 Gap=     0.142 Goal=   None    Shift=    0.000
 RMSDP=4.27D-05 MaxDP=7.52D-04 DE=-1.17D-04 OVMax= 3.02D-03

 Cycle  30  Pass 1  IDiag  1:
 RMSU=  1.25D-05    CP:  1.00D+00  2.67D-01 -1.12D+00 -3.00D+00 -3.00D+00
                    CP: -3.00D+00  3.00D+00 -3.00D+00  3.00D+00  3.00D+00
                    CP:  3.00D+00  3.00D+00  3.00D+00  1.11D+00
 E= -489.297518682039     Delta-E=       -0.000012039016 Rises=F Damp=F
 DIIS: error= 2.78D-04 at cycle  15 NSaved=  10.
 NSaved=10 IEnMin= 3 EnMin= -489.297616105097     IErMin=10 ErrMin= 2.78D-04
 ErrMax= 2.78D-04  0.00D+00 EMaxC= 1.00D-01 BMatC= 2.53D-06 BMatP= 1.42D-06
 IDIUse=3 WtCom= 9.96D-01 WtEn= 3.84D-03
 Coeff-Com:  0.971D-01 0.229D+00 0.360D+00-0.238D+01 0.317D+01-0.304D+00
 Coeff-Com: -0.192D+00-0.200D+01-0.563D+01 0.765D+01
 Coeff-En:   0.000D+00 0.000D+00 0.000D+00 0.000D+00 0.000D+00 0.000D+00
 Coeff-En:   0.000D+00 0.000D+00 0.000D+00 0.100D+01
 Coeff:      0.968D-01 0.228D+00 0.359D+00-0.237D+01 0.315D+01-0.303D+00
 Coeff:     -0.191D+00-0.199D+01-0.561D+01 0.763D+01
 Gap=     0.143 Goal=   None    Shift=    0.000
 RMSDP=2.70D-04 MaxDP=4.39D-03 DE=-1.20D-05 OVMax= 1.85D-02

 Cycle  31  Pass 1  IDiag  1:
 RMSU=  1.27D-04    CP:  1.00D+00  1.46D-01 -8.09D-01 -3.00D+00 -3.00D+00
                    CP: -3.00D+00  3.00D+00 -3.00D+00  3.00D+00  3.00D+00
                    CP:  3.00D+00  3.00D+00  3.00D+00  2.41D+00  3.00D+00
 E= -489.297538139015     Delta-E=       -0.000019456976 Rises=F Damp=F
 DIIS: error= 3.86D-04 at cycle  16 NSaved=  11.
 NSaved=11 IEnMin= 3 EnMin= -489.297616105097     IErMin=10 ErrMin= 2.78D-04
 ErrMax= 3.86D-04  0.00D+00 EMaxC= 1.00D-01 BMatC= 1.58D-05 BMatP= 1.42D-06
 IDIUse=3 WtCom= 9.96D-01 WtEn= 3.84D-03
 Coeff-Com: -0.161D+01-0.707D+00 0.174D+01-0.425D+00 0.249D+01 0.990D-01
 Coeff-Com: -0.153D+01-0.135D+01-0.150D+01 0.327D+01 0.521D+00
 Coeff-En:   0.000D+00 0.000D+00 0.000D+00 0.000D+00 0.000D+00 0.000D+00
 Coeff-En:   0.000D+00 0.000D+00 0.000D+00 0.000D+00 0.100D+01
 Coeff:     -0.160D+01-0.704D+00 0.174D+01-0.424D+00 0.248D+01 0.986D-01
 Coeff:     -0.153D+01-0.135D+01-0.149D+01 0.326D+01 0.523D+00
 Gap=     0.143 Goal=   None    Shift=    0.000
 RMSDP=2.63D-04 MaxDP=5.09D-03 DE=-1.95D-05 OVMax= 1.91D-02

 Cycle  32  Pass 1  IDiag  1:
 RMSU=  9.83D-05    CP:  1.00D+00  1.23D+00 -4.90D-01 -3.00D+00 -3.00D+00
                    CP: -3.00D+00  3.00D+00 -3.00D+00  3.00D+00  3.00D+00
                    CP:  3.00D+00  3.00D+00  3.00D+00  3.00D+00  3.00D+00
                    CP:  1.91D+00
 E= -489.297585976956     Delta-E=       -0.000047837941 Rises=F Damp=F
 DIIS: error= 1.79D-04 at cycle  17 NSaved=  12.
 NSaved=12 IEnMin= 3 EnMin= -489.297616105097     IErMin=12 ErrMin= 1.79D-04
 ErrMax= 1.79D-04  0.00D+00 EMaxC= 1.00D-01 BMatC= 6.15D-06 BMatP= 1.42D-06
 IDIUse=3 WtCom= 9.96D-01 WtEn= 3.84D-03
 Coeff-Com: -0.183D+01-0.781D+00 0.234D+01 0.146D+00 0.568D-01 0.195D+01
 Coeff-Com: -0.191D+01-0.505D+00 0.167D+01-0.123D+01-0.193D+00 0.130D+01
 Coeff-En:   0.000D+00 0.000D+00 0.000D+00 0.000D+00 0.000D+00 0.000D+00
 Coeff-En:   0.000D+00 0.000D+00 0.000D+00 0.000D+00 0.000D+00 0.100D+01
 Coeff:     -0.182D+01-0.778D+00 0.233D+01 0.145D+00 0.566D-01 0.194D+01
 Coeff:     -0.191D+01-0.503D+00 0.166D+01-0.122D+01-0.192D+00 0.130D+01
 Gap=     0.143 Goal=   None    Shift=    0.000
 RMSDP=1.91D-04 MaxDP=3.53D-03 DE=-4.78D-05 OVMax= 1.37D-02

 Cycle  33  Pass 1  IDiag  1:
 RMSU=  4.71D-05    CP:  9.99D-01  1.96D+00 -3.74D-01 -3.00D+00 -3.00D+00
                    CP: -3.00D+00  3.00D+00 -3.00D+00  3.00D+00  3.00D+00
                    CP:  3.00D+00  3.00D+00  3.00D+00  3.00D+00  3.00D+00
                    CP:  2.65D+00  2.36D+00
 E= -489.297607946563     Delta-E=       -0.000021969607 Rises=F Damp=F
 DIIS: error= 7.71D-05 at cycle  18 NSaved=  13.
 NSaved=13 IEnMin= 3 EnMin= -489.297616105097     IErMin=13 ErrMin= 7.71D-05
 ErrMax= 7.71D-05  0.00D+00 EMaxC= 1.00D-01 BMatC= 6.73D-07 BMatP= 1.42D-06
 IDIUse=1 WtCom= 1.00D+00 WtEn= 0.00D+00
 Coeff-Com: -0.139D+00-0.377D-01 0.372D+00-0.374D+00 0.201D+00 0.778D+00
 Coeff-Com: -0.347D+00-0.510D+00-0.107D+01 0.106D+01-0.158D+00-0.223D+00
 Coeff-Com:  0.144D+01
 Coeff:     -0.139D+00-0.377D-01 0.372D+00-0.374D+00 0.201D+00 0.778D+00
 Coeff:     -0.347D+00-0.510D+00-0.107D+01 0.106D+01-0.158D+00-0.223D+00
 Coeff:      0.144D+01
 Gap=     0.142 Goal=   None    Shift=    0.000
 RMSDP=1.09D-04 MaxDP=1.88D-03 DE=-2.20D-05 OVMax= 8.34D-03

 Cycle  34  Pass 1  IDiag  1:
 RMSU=  2.38D-05    CP:  9.99D-01  2.51D+00 -5.18D-02 -3.00D+00 -3.00D+00
                    CP: -3.00D+00  3.00D+00 -3.00D+00  3.00D+00  3.00D+00
                    CP:  3.00D+00  3.00D+00  3.00D+00  3.00D+00  3.00D+00
                    CP:  2.96D+00  2.83D+00  1.76D+00
 E= -489.297614168053     Delta-E=       -0.000006221490 Rises=F Damp=F
 DIIS: error= 5.09D-05 at cycle  19 NSaved=  14.
 NSaved=14 IEnMin= 3 EnMin= -489.297616105097     IErMin=14 ErrMin= 5.09D-05
 ErrMax= 5.09D-05  0.00D+00 EMaxC= 1.00D-01 BMatC= 2.86D-07 BMatP= 6.73D-07
 IDIUse=1 WtCom= 1.00D+00 WtEn= 0.00D+00
 Coeff-Com:  0.442D+00 0.152D+00-0.728D+00 0.217D+00 0.165D+00-0.688D+00
 Coeff-Com:  0.381D+00 0.141D+00-0.276D+00 0.210D+00-0.279D-01-0.461D+00
 Coeff-Com:  0.453D+00 0.102D+01
 Coeff:      0.442D+00 0.152D+00-0.728D+00 0.217D+00 0.165D+00-0.688D+00
 Coeff:      0.381D+00 0.141D+00-0.276D+00 0.210D+00-0.279D-01-0.461D+00
 Coeff:      0.453D+00 0.102D+01
 Gap=     0.142 Goal=   None    Shift=    0.000
 RMSDP=1.04D-04 MaxDP=2.04D-03 DE=-6.22D-06 OVMax= 7.60D-03

 Cycle  35  Pass 1  IDiag  1:
 RMSU=  4.83D-05    CP:  9.99D-01  3.00D+00  2.17D-01 -3.00D+00 -3.00D+00
                    CP: -3.00D+00  3.00D+00 -3.00D+00  3.00D+00  3.00D+00
                    CP:  3.00D+00  3.00D+00  3.00D+00  3.00D+00  3.00D+00
                    CP:  3.00D+00  3.00D+00  2.16D+00  1.63D+00
 E= -489.297615748727     Delta-E=       -0.000001580674 Rises=F Damp=F
 DIIS: error= 6.88D-05 at cycle  20 NSaved=  15.
 NSaved=15 IEnMin= 3 EnMin= -489.297616105097     IErMin=14 ErrMin= 5.09D-05
 ErrMax= 6.88D-05  0.00D+00 EMaxC= 1.00D-01 BMatC= 2.36D-07 BMatP= 2.86D-07
 IDIUse=1 WtCom= 1.00D+00 WtEn= 0.00D+00
 Coeff-Com:  0.184D+00 0.603D-01-0.314D+00 0.509D-01 0.802D-01-0.339D+00
 Coeff-Com:  0.266D+00 0.795D-01-0.235D+00 0.162D+00 0.916D-01-0.193D+00
 Coeff-Com: -0.604D-01 0.409D+00 0.758D+00
 Coeff:      0.184D+00 0.603D-01-0.314D+00 0.509D-01 0.802D-01-0.339D+00
 Coeff:      0.266D+00 0.795D-01-0.235D+00 0.162D+00 0.916D-01-0.193D+00
 Coeff:     -0.604D-01 0.409D+00 0.758D+00
 Gap=     0.142 Goal=   None    Shift=    0.000
 RMSDP=3.34D-05 MaxDP=6.00D-04 DE=-1.58D-06 OVMax= 1.75D-03

 Cycle  36  Pass 1  IDiag  1:
 Restarting incremental Fock formation.
 E= -489.297616027763     Delta-E=       -0.000000279036 Rises=F Damp=F
 DIIS: error= 1.63D-05 at cycle  21 NSaved=  16.
 NSaved=16 IEnMin= 3 EnMin= -489.297616105097     IErMin=16 ErrMin= 1.63D-05
 ErrMax= 1.63D-05  0.00D+00 EMaxC= 1.00D-01 BMatC= 3.61D-08 BMatP= 2.36D-07
 IDIUse=1 WtCom= 1.00D+00 WtEn= 0.00D+00
 Coeff-Com: -0.197D+00-0.932D-01 0.214D+00 0.181D-01 0.295D-01 0.124D+00
 Coeff-Com: -0.106D+00-0.381D-01 0.184D+00-0.155D+00 0.504D-01 0.158D+00
 Coeff-Com: -0.293D+00-0.266D+00 0.467D+00 0.904D+00
 Coeff:     -0.197D+00-0.932D-01 0.214D+00 0.181D-01 0.295D-01 0.124D+00
 Coeff:     -0.106D+00-0.381D-01 0.184D+00-0.155D+00 0.504D-01 0.158D+00
 Coeff:     -0.293D+00-0.266D+00 0.467D+00 0.904D+00
 Gap=     0.142 Goal=   None    Shift=    0.000
 RMSDP=1.75D-05 MaxDP=1.95D-04 DE=-2.79D-07 OVMax= 1.24D-03

 Cycle  37  Pass 1  IDiag  1:
 RMSU=  1.75D-05    CP:  1.00D+00
 E= -489.297615994133     Delta-E=        0.000000033630 Rises=F Damp=F
 DIIS: error= 3.47D-05 at cycle  22 NSaved=  17.
 NSaved=17 IEnMin= 3 EnMin= -489.297616105097     IErMin=16 ErrMin= 1.63D-05
 ErrMax= 3.47D-05  0.00D+00 EMaxC= 1.00D-01 BMatC= 9.44D-08 BMatP= 3.61D-08
 IDIUse=1 WtCom= 1.00D+00 WtEn= 0.00D+00
 Coeff-Com:  0.643D-01 0.487D-01-0.383D-02-0.115D+00-0.470D-01 0.559D-01
 Coeff-Com:  0.279D-01-0.245D-01-0.103D+00 0.144D+00-0.718D-01 0.106D-01
 Coeff-Com:  0.190D-01-0.106D+00 0.102D+00-0.202D+00 0.120D+01
 Coeff:      0.643D-01 0.487D-01-0.383D-02-0.115D+00-0.470D-01 0.559D-01
 Coeff:      0.279D-01-0.245D-01-0.103D+00 0.144D+00-0.718D-01 0.106D-01
 Coeff:      0.190D-01-0.106D+00 0.102D+00-0.202D+00 0.120D+01
 Gap=     0.142 Goal=   None    Shift=    0.000
 RMSDP=1.36D-05 MaxDP=2.39D-04 DE= 3.36D-08 OVMax= 6.67D-04

 Cycle  38  Pass 1  IDiag  1:
 RMSU=  1.35D-05    CP:  1.00D+00  8.83D-01
 E= -489.297616138537     Delta-E=       -0.000000144404 Rises=F Damp=F
 DIIS: error= 3.26D-06 at cycle  23 NSaved=  18.
 NSaved=18 IEnMin=18 EnMin= -489.297616138537     IErMin=18 ErrMin= 3.26D-06
 ErrMax= 3.26D-06  0.00D+00 EMaxC= 1.00D-01 BMatC= 1.42D-09 BMatP= 3.61D-08
 IDIUse=1 WtCom= 1.00D+00 WtEn= 0.00D+00
 Coeff-Com:  0.648D-02 0.660D-03-0.104D-01 0.119D-01 0.261D-01-0.327D-01
 Coeff-Com:  0.160D-02-0.403D-02-0.164D-01 0.169D-01-0.995D-02-0.131D-01
 Coeff-Com:  0.545D-01 0.537D-01-0.763D-01-0.288D+00 0.802D-01 0.120D+01
 Coeff:      0.648D-02 0.660D-03-0.104D-01 0.119D-01 0.261D-01-0.327D-01
 Coeff:      0.160D-02-0.403D-02-0.164D-01 0.169D-01-0.995D-02-0.131D-01
 Coeff:      0.545D-01 0.537D-01-0.763D-01-0.288D+00 0.802D-01 0.120D+01
 Gap=     0.142 Goal=   None    Shift=    0.000
 RMSDP=3.11D-06 MaxDP=4.05D-05 DE=-1.44D-07 OVMax= 2.14D-04

 Cycle  39  Pass 1  IDiag  1:
 RMSU=  1.12D-06    CP:  1.00D+00  7.99D-01  1.19D+00
 E= -489.297616135144     Delta-E=        0.000000003393 Rises=F Damp=F
 DIIS: error= 7.74D-06 at cycle  24 NSaved=  19.
 NSaved=19 IEnMin=18 EnMin= -489.297616138537     IErMin=18 ErrMin= 3.26D-06
 ErrMax= 7.74D-06  0.00D+00 EMaxC= 1.00D-01 BMatC= 3.73D-09 BMatP= 1.42D-09
 IDIUse=1 WtCom= 1.00D+00 WtEn= 0.00D+00
 Coeff-Com:  0.260D-01 0.145D-01-0.222D-01-0.437D-02-0.349D-01 0.279D-02
 Coeff-Com:  0.110D-01 0.222D-01 0.157D-01-0.342D-01 0.174D-02-0.759D-02
 Coeff-Com:  0.176D-01 0.674D-02-0.535D-01 0.115D-01 0.467D-01-0.941D-01
 Coeff-Com:  0.107D+01
 Coeff:      0.260D-01 0.145D-01-0.222D-01-0.437D-02-0.349D-01 0.279D-02
 Coeff:      0.110D-01 0.222D-01 0.157D-01-0.342D-01 0.174D-02-0.759D-02
 Coeff:      0.176D-01 0.674D-02-0.535D-01 0.115D-01 0.467D-01-0.941D-01
 Coeff:      0.107D+01
 Gap=     0.142 Goal=   None    Shift=    0.000
 RMSDP=2.42D-06 MaxDP=4.84D-05 DE= 3.39D-09 OVMax= 1.64D-04

 Cycle  40  Pass 1  IDiag  1:
 RMSU=  7.67D-07    CP:  1.00D+00  7.70D-01  1.02D+00  9.61D-01
 E= -489.297616139493     Delta-E=       -0.000000004349 Rises=F Damp=F
 DIIS: error= 4.00D-06 at cycle  25 NSaved=  20.
 NSaved=20 IEnMin=20 EnMin= -489.297616139493     IErMin=18 ErrMin= 3.26D-06
 ErrMax= 4.00D-06  0.00D+00 EMaxC= 1.00D-01 BMatC= 1.28D-09 BMatP= 1.42D-09
 IDIUse=1 WtCom= 1.00D+00 WtEn= 0.00D+00
 Coeff-Com:  0.883D-02 0.416D-02-0.124D-01 0.190D-02-0.657D-02-0.150D-02
 Coeff-Com:  0.508D-02 0.238D-02-0.248D-02-0.115D-02-0.114D-02-0.268D-02
 Coeff-Com:  0.307D-02 0.807D-02-0.130D-01-0.754D-03 0.107D+00-0.363D+00
 Coeff-Com:  0.635D-01 0.120D+01
 Coeff:      0.883D-02 0.416D-02-0.124D-01 0.190D-02-0.657D-02-0.150D-02
 Coeff:      0.508D-02 0.238D-02-0.248D-02-0.115D-02-0.114D-02-0.268D-02
 Coeff:      0.307D-02 0.807D-02-0.130D-01-0.754D-03 0.107D+00-0.363D+00
 Coeff:      0.635D-01 0.120D+01
 Gap=     0.142 Goal=   None    Shift=    0.000
 RMSDP=1.14D-06 MaxDP=1.46D-05 DE=-4.35D-09 OVMax= 6.87D-05

 Cycle  41  Pass 1  IDiag  1:
 RMSU=  2.22D-07    CP:  1.00D+00  8.30D-01  1.03D+00  1.20D+00  6.75D-01
 E= -489.297616141093     Delta-E=       -0.000000001600 Rises=F Damp=F
 DIIS: error= 1.43D-06 at cycle  26 NSaved=  20.
 NSaved=20 IEnMin=20 EnMin= -489.297616141093     IErMin=20 ErrMin= 1.43D-06
 ErrMax= 1.43D-06  0.00D+00 EMaxC= 1.00D-01 BMatC= 1.37D-10 BMatP= 1.28D-09
 IDIUse=1 WtCom= 1.00D+00 WtEn= 0.00D+00
 Coeff-Com: -0.110D-02-0.563D-03 0.448D-03 0.176D-02-0.498D-03-0.763D-03
 Coeff-Com:  0.709D-03 0.789D-03-0.688D-03 0.142D-02-0.355D-03-0.220D-02
 Coeff-Com:  0.216D-02 0.228D-02-0.521D-02-0.164D-01 0.935D-01-0.272D+00
 Coeff-Com: -0.119D+00 0.132D+01
 Coeff:     -0.110D-02-0.563D-03 0.448D-03 0.176D-02-0.498D-03-0.763D-03
 Coeff:      0.709D-03 0.789D-03-0.688D-03 0.142D-02-0.355D-03-0.220D-02
 Coeff:      0.216D-02 0.228D-02-0.521D-02-0.164D-01 0.935D-01-0.272D+00
 Coeff:     -0.119D+00 0.132D+01
 Gap=     0.142 Goal=   None    Shift=    0.000
 RMSDP=6.03D-07 MaxDP=1.19D-05 DE=-1.60D-09 OVMax= 3.51D-05

 Cycle  42  Pass 1  IDiag  1:
 RMSU=  3.78D-08    CP:  1.00D+00  8.29D-01  9.90D-01  1.22D+00  8.79D-01
                    CP:  1.19D+00
 E= -489.297616141336     Delta-E=       -0.000000000244 Rises=F Damp=F
 DIIS: error= 4.43D-08 at cycle  27 NSaved=  20.
 NSaved=20 IEnMin=20 EnMin= -489.297616141336     IErMin=20 ErrMin= 4.43D-08
 ErrMax= 4.43D-08  0.00D+00 EMaxC= 1.00D-01 BMatC= 2.73D-13 BMatP= 1.37D-10
 IDIUse=1 WtCom= 1.00D+00 WtEn= 0.00D+00
 Coeff-Com:  0.837D-03 0.422D-03-0.759D-03-0.101D-03-0.819D-03 0.734D-03
 Coeff-Com:  0.120D-02-0.141D-02-0.263D-04-0.713D-04 0.196D-03-0.705D-03
 Coeff-Com:  0.110D-03 0.275D-02-0.712D-02 0.105D-01 0.341D-01-0.107D+00
 Coeff-Com: -0.985D-01 0.117D+01
 Coeff:      0.837D-03 0.422D-03-0.759D-03-0.101D-03-0.819D-03 0.734D-03
 Coeff:      0.120D-02-0.141D-02-0.263D-04-0.713D-04 0.196D-03-0.705D-03
 Coeff:      0.110D-03 0.275D-02-0.712D-02 0.105D-01 0.341D-01-0.107D+00
 Coeff:     -0.985D-01 0.117D+01
 Gap=     0.142 Goal=   None    Shift=    0.000
 RMSDP=8.14D-08 MaxDP=1.03D-06 DE=-2.44D-10 OVMax= 5.29D-06

 Cycle  43  Pass 1  IDiag  1:
 RMSU=  1.00D-08    CP:  1.00D+00  8.27D-01  9.95D-01  1.23D+00  8.72D-01
                    CP:  1.26D+00  1.25D+00
 E= -489.297616141332     Delta-E=        0.000000000004 Rises=F Damp=F
 DIIS: error= 1.30D-07 at cycle  28 NSaved=  20.
 NSaved=20 IEnMin=19 EnMin= -489.297616141336     IErMin=19 ErrMin= 4.43D-08
 ErrMax= 1.30D-07  0.00D+00 EMaxC= 1.00D-01 BMatC= 1.40D-12 BMatP= 2.73D-13
 IDIUse=1 WtCom= 1.00D+00 WtEn= 0.00D+00
 Coeff-Com:  0.133D-03 0.601D-04-0.179D-03 0.430D-04-0.317D-04 0.165D-03
 Coeff-Com: -0.289D-03-0.108D-03 0.112D-03 0.256D-03 0.199D-03-0.925D-03
 Coeff-Com: -0.564D-03 0.322D-02-0.590D-02 0.197D-01 0.520D-03-0.837D-01
 Coeff-Com: -0.150D+00 0.122D+01
 Coeff:      0.133D-03 0.601D-04-0.179D-03 0.430D-04-0.317D-04 0.165D-03
 Coeff:     -0.289D-03-0.108D-03 0.112D-03 0.256D-03 0.199D-03-0.925D-03
 Coeff:     -0.564D-03 0.322D-02-0.590D-02 0.197D-01 0.520D-03-0.837D-01
 Coeff:     -0.150D+00 0.122D+01
 Gap=     0.142 Goal=   None    Shift=    0.000
 RMSDP=2.60D-08 MaxDP=3.24D-07 DE= 4.09D-12 OVMax= 1.47D-06

 Cycle  44  Pass 1  IDiag  1:
 RMSU=  4.03D-09    CP:  1.00D+00  8.28D-01  9.94D-01  1.24D+00  8.63D-01
                    CP:  1.29D+00  1.34D+00  1.46D+00
 E= -489.297616141336     Delta-E=       -0.000000000004 Rises=F Damp=F
 DIIS: error= 4.74D-08 at cycle  29 NSaved=  20.
 NSaved=20 IEnMin=20 EnMin= -489.297616141336     IErMin=18 ErrMin= 4.43D-08
 ErrMax= 4.74D-08  0.00D+00 EMaxC= 1.00D-01 BMatC= 1.56D-13 BMatP= 2.73D-13
 IDIUse=1 WtCom= 1.00D+00 WtEn= 0.00D+00
 Large coefficients: NSaved= 20 BigCof=    0.00 CofMax=   10.00 Det=-2.63D-15
 Inversion failed.  Reducing to 19 matrices.
 Large coefficients: NSaved= 19 BigCof=    0.00 CofMax=   10.00 Det=-2.99D-15
 Inversion failed.  Reducing to 18 matrices.
 Large coefficients: NSaved= 18 BigCof=    0.00 CofMax=   10.00 Det=-3.47D-15
 Inversion failed.  Reducing to 17 matrices.
 Large coefficients: NSaved= 17 BigCof=    0.00 CofMax=   10.00 Det=-3.68D-15
 Inversion failed.  Reducing to 16 matrices.
 Large coefficients: NSaved= 16 BigCof=    0.00 CofMax=   10.00 Det=-3.97D-15
 Inversion failed.  Reducing to 15 matrices.
 Coeff-Com: -0.937D-05-0.119D-05 0.985D-05-0.492D-04 0.171D-03-0.237D-03
 Coeff-Com: -0.344D-03 0.981D-03 0.602D-03-0.986D-02 0.183D-01 0.157D-01
 Coeff-Com: -0.138D+00-0.270D+00 0.138D+01
 Coeff:     -0.937D-05-0.119D-05 0.985D-05-0.492D-04 0.171D-03-0.237D-03
 Coeff:     -0.344D-03 0.981D-03 0.602D-03-0.986D-02 0.183D-01 0.157D-01
 Coeff:     -0.138D+00-0.270D+00 0.138D+01
 Gap=     0.142 Goal=   None    Shift=    0.000
 RMSDP=2.21D-08 MaxDP=4.25D-07 DE=-4.21D-12 OVMax= 1.25D-06

 Cycle  45  Pass 1  IDiag  1:
 RMSU=  1.45D-09    CP:  1.00D+00  8.28D-01  9.93D-01  1.24D+00  8.69D-01
                    CP:  1.29D+00  1.39D+00  1.76D+00  1.78D+00
 E= -489.297616141338     Delta-E=       -0.000000000001 Rises=F Damp=F
 DIIS: error= 5.23D-09 at cycle  30 NSaved=  16.
 NSaved=16 IEnMin=16 EnMin= -489.297616141338     IErMin=16 ErrMin= 5.23D-09
 ErrMax= 5.23D-09  0.00D+00 EMaxC= 1.00D-01 BMatC= 1.51D-15 BMatP= 1.56D-13
 IDIUse=1 WtCom= 1.00D+00 WtEn= 0.00D+00
 Large coefficients: NSaved= 16 BigCof=    0.00 CofMax=   10.00 Det=-1.04D-15
 Inversion failed.  Reducing to 15 matrices.
 Coeff-Com: -0.124D-05 0.129D-06-0.278D-04 0.721D-04-0.797D-04 0.732D-05
 Coeff-Com:  0.465D-04-0.156D-03-0.394D-02 0.962D-02 0.108D-01-0.153D-01
 Coeff-Com: -0.259D+00 0.405D+00 0.853D+00
 Coeff:     -0.124D-05 0.129D-06-0.278D-04 0.721D-04-0.797D-04 0.732D-05
 Coeff:      0.465D-04-0.156D-03-0.394D-02 0.962D-02 0.108D-01-0.153D-01
 Coeff:     -0.259D+00 0.405D+00 0.853D+00
 Gap=     0.142 Goal=   None    Shift=    0.000
 RMSDP=2.19D-09 MaxDP=2.93D-08 DE=-1.25D-12 OVMax= 9.98D-08

 SCF Done:  E(RwB97XD) =  -489.297616141     A.U. after   45 cycles
            NFock= 45  Conv=0.22D-08     -V/T= 2.0045
 KE= 4.871233958138D+02 PE=-2.023910277749D+03 EE= 5.936871388800D+02
 Leave Link  502 at Wed Jan  5 16:36:51 2022, MaxMem=   402653184 cpu:            1937.3 elap:             362.0
 (Enter /work/01114/jfonner/frontera/gaussian/16rC.01/g16/l601.exe)
 Copying SCF densities to generalized density rwf, IOpCl= 0 IROHF=0.

 **********************************************************************

            Population analysis using the SCF Density.

 **********************************************************************

 Orbital symmetries:
       Occupied  (A) (A) (A) (A) (A) (A) (A) (A) (A) (A) (A) (A)
                 (A) (A) (A) (A) (A) (A) (A) (A) (A) (A) (A) (A)
                 (A) (A) (A) (A) (A) (A) (A) (A) (A) (A)
       Virtual   (A) (A) (A) (A) (A) (A) (A) (A) (A) (A) (A) (A)
                 (A) (A) (A) (A) (A) (A) (A) (A) (A) (A) (A) (A)
                 (A) (A) (A) (A) (A) (A) (A) (A) (A) (A) (A) (A)
                 (A) (A) (A) (A) (A) (A) (A) (A) (A) (A) (A) (A)
                 (A) (A) (A) (A) (A) (A) (A) (A) (A) (A) (A) (A)
                 (A) (A) (A) (A)
 The electronic state is 1-A.
 Alpha  occ. eigenvalues --  -19.72500 -19.70290 -14.99037 -14.88520 -10.88378
 Alpha  occ. eigenvalues --  -10.87774 -10.83861 -10.81198 -10.77962 -10.77094
 Alpha  occ. eigenvalues --   -1.63542  -1.62476  -1.50079  -1.42102  -1.34573
 Alpha  occ. eigenvalues --   -1.24811  -1.19953  -1.10849  -1.07040  -1.01351
 Alpha  occ. eigenvalues --   -0.98614  -0.96540  -0.95708  -0.94789  -0.93637
 Alpha  occ. eigenvalues --   -0.92129  -0.89118  -0.87685  -0.82420  -0.80562
 Alpha  occ. eigenvalues --   -0.78297  -0.77004  -0.74012  -0.71951
 Alpha virt. eigenvalues --   -0.57738  -0.49514  -0.45386  -0.43030  -0.37698
 Alpha virt. eigenvalues --   -0.31295  -0.28863  -0.13417  -0.12409  -0.12121
 Alpha virt. eigenvalues --   -0.09651  -0.08764  -0.07339  -0.05925  -0.05291
 Alpha virt. eigenvalues --   -0.05195  -0.00962   0.02526   0.06874   0.11281
 Alpha virt. eigenvalues --    0.20383   0.21277   0.22176   0.24114   0.26134
 Alpha virt. eigenvalues --    0.27119   0.28908   0.29075   0.30228   0.31078
 Alpha virt. eigenvalues --    0.32866   0.34462   0.37417   0.37994   0.38884
 Alpha virt. eigenvalues --    0.41838   0.43196   0.45730   0.47484   0.51302
 Alpha virt. eigenvalues --    0.53283   0.58557   0.58773   0.61111   0.64192
 Alpha virt. eigenvalues --    0.65075   0.66616   0.68704   0.68961   0.71152
 Alpha virt. eigenvalues --    0.73477   0.75906   0.77495   0.81478   0.85701
 Alpha virt. eigenvalues --    0.87716   0.91154   0.93960   0.97324   1.11910
 Alpha virt. eigenvalues --    1.23043   1.31796   1.45518   1.67537
          Condensed to atoms (all electrons):
               1          2          3          4          5          6
     1  C    4.920210   0.379412   0.065057  -0.025895   0.002934   0.000594
     2  O    0.379412   7.863072  -0.096083   0.008066  -0.000789   0.000003
     3  N    0.065057  -0.096083   7.175087   0.143716  -0.075107   0.002907
     4  C   -0.025895   0.008066   0.143716   5.559317   0.069540  -0.120069
     5  C    0.002934  -0.000789  -0.075107   0.069540   5.088592   0.428448
     6  O    0.000594   0.000003   0.002907  -0.120069   0.428448   7.984505
     7  N    0.000636   0.000150  -0.003546  -0.133468   0.251615  -0.148079
     8  C   -0.000007  -0.000001  -0.000117   0.004608  -0.060333  -0.010073
     9  C    0.000575   0.000327  -0.071375   0.347959  -0.089373  -0.002692
    10  C   -0.000056   0.000019   0.003012   0.000424   0.003440  -0.003377
    11  H    0.381931  -0.045839  -0.085419   0.006860  -0.000022   0.000018
    12  H    0.000707   0.000287  -0.007053  -0.020462   0.002638  -0.000008
    13  H    0.000000   0.000000  -0.000002  -0.000074   0.002592   0.000230
    14  H    0.000001   0.000000   0.000022  -0.000260  -0.001340   0.000918
               7          8          9         10         11         12
     1  C    0.000636  -0.000007   0.000575  -0.000056   0.381931   0.000707
     2  O    0.000150  -0.000001   0.000327   0.000019  -0.045839   0.000287
     3  N   -0.003546  -0.000117  -0.071375   0.003012  -0.085419  -0.007053
     4  C   -0.133468   0.004608   0.347959   0.000424   0.006860  -0.020462
     5  C    0.251615  -0.060333  -0.089373   0.003440  -0.000022   0.002638
     6  O   -0.148079  -0.010073  -0.002692  -0.003377   0.000018  -0.000008
     7  N    7.128295   0.302642  -0.006552   0.002312   0.000005  -0.000062
     8  C    0.302642   4.981859  -0.000337  -0.000025  -0.000000   0.000002
     9  C   -0.006552  -0.000337   5.561022   0.103823  -0.000149   0.337814
    10  C    0.002312  -0.000025   0.103823   5.380604   0.000000  -0.015300
    11  H    0.000005  -0.000000  -0.000149   0.000000   0.387501  -0.000008
    12  H   -0.000062   0.000002   0.337814  -0.015300  -0.000008   0.343126
    13  H   -0.034124   0.354479   0.000015  -0.000012  -0.000000  -0.000000
    14  H   -0.042365   0.356691  -0.000007   0.000004   0.000000   0.000000
              13         14
     1  C    0.000000   0.000001
     2  O    0.000000   0.000000
     3  N   -0.000002   0.000022
     4  C   -0.000074  -0.000260
     5  C    0.002592  -0.001340
     6  O    0.000230   0.000918
     7  N   -0.034124  -0.042365
     8  C    0.354479   0.356691
     9  C    0.000015  -0.000007
    10  C   -0.000012   0.000004
    11  H   -0.000000   0.000000
    12  H   -0.000000   0.000000
    13  H    0.364556  -0.025678
    14  H   -0.025678   0.378469
 Mulliken charges:
               1
     1  C    0.273902
     2  O   -0.108625
     3  N   -0.051097
     4  C    0.159738
     5  C    0.377165
     6  O   -0.133326
     7  N   -0.317458
     8  C    0.070614
     9  C   -0.181049
    10  C    0.525131
    11  H    0.355121
    12  H    0.358319
    13  H    0.338020
    14  H    0.333544
 Sum of Mulliken charges =   2.00000
 Mulliken charges with hydrogens summed into heavy atoms:
               1
     1  C    0.629024
     2  O   -0.108625
     3  N   -0.051097
     4  C    0.159738
     5  C    0.377165
     6  O   -0.133326
     7  N   -0.317458
     8  C    0.742178
     9  C    0.177270
    10  C    0.525131
 Electronic spatial extent (au):  <R**2>=           1385.9775
 Charge=              2.0000 electrons
 Dipole moment (field-independent basis, Debye):
    X=              1.4122    Y=              0.9939    Z=             -1.2115  Tot=              2.1094
 Quadrupole moment (field-independent basis, Debye-Ang):
   XX=             -1.3794   YY=            -23.5085   ZZ=            -53.4874
   XY=            -10.9849   XZ=            -10.2681   YZ=             -4.2297
 Traceless Quadrupole moment (field-independent basis, Debye-Ang):
   XX=             24.7457   YY=              2.6166   ZZ=            -27.3623
   XY=            -10.9849   XZ=            -10.2681   YZ=             -4.2297
 Octapole moment (field-independent basis, Debye-Ang**2):
  XXX=             48.1262  YYY=             19.0221  ZZZ=             -0.4435  XYY=              6.9457
  XXY=            -57.4835  XXZ=             -1.5536  XZZ=             -1.6296  YZZ=             -4.8742
  YYZ=             -8.1666  XYZ=             14.5768
 Hexadecapole moment (field-independent basis, Debye-Ang**3):
 XXXX=           -540.2726 YYYY=           -329.7735 ZZZZ=           -196.4699 XXXY=           -108.5948
 XXXZ=           -106.3920 YYYX=            -50.1053 YYYZ=            -16.8699 ZZZX=             -4.7800
 ZZZY=              3.4125 XXYY=           -157.8899 XXZZ=           -183.1895 YYZZ=           -109.5156
 XXYZ=              3.1997 YYXZ=             -9.2127 ZZXY=             -4.9946
 N-N= 4.538021269139D+02 E-N=-2.023910277790D+03  KE= 4.871233958138D+02
 No NMR shielding tensors so no spin-rotation constants.
 Leave Link  601 at Wed Jan  5 16:37:02 2022, MaxMem=   402653184 cpu:              47.5 elap:               9.1
 (Enter /work/01114/jfonner/frontera/gaussian/16rC.01/g16/l9999.exe)
 Unable to Open any file for archive entry.
 1\1\GINC-C202-005\SP\RwB97XD\6-31G\C6H4N2O2(2+)\SA748948\05-Jan-2022\0
 \\#p int=acc2e=12 wb97xd/6-31g\\Atom number=14\\2,1\C,0,-1.636,0.175,4
 .6\O,0,-1.744,1.356,4.862\N,0,-1.095,-0.7,5.415\C,0,-0.572,-0.311,6.66
 9\C,0,0.84,-0.854,6.792\O,0,1.027,-2.022,6.72\N,0,1.81,0.002,7.023\C,0
 ,3.191,-0.429,7.101\C,0,-1.411,-0.913,7.797\C,0,-0.727,-0.645,9.123\H,
 0,-1.9392756,-0.22723172,3.6560013\H,0,-2.40237511,-0.5104546,7.791290
 14\H,0,3.70315062,0.05967705,7.9033693\H,0,3.66073376,-0.20380411,6.16
 636798\\Version=ES64L-G16RevC.01\State=1-A\HF=-489.2976161\RMSD=2.187e
 -09\Dipole=0.2928737,0.1910117,0.7526634\Quadrupole=21.5643722,-22.417
 2892,0.852917,0.9906237,4.7109554,-2.367825\PG=C01 [X(C6H4N2O2)]\\@
 The archive entry for this job was punched.


 A HARD FALL SHOULD MEAN A HIGH BOUNCE 
 IF ONE IS MADE OF THE RIGHT MATERIAL.

                -- THE CHEMIST ANALYST, MARCH 1950
 Job cpu time:       0 days  0 hours 35 minutes 46.4 seconds.
 Elapsed time:       0 days  0 hours  6 minutes 39.8 seconds.
 File lengths (MBytes):  RWF=     10 Int=      0 D2E=      0 Chk=      2 Scr=      1
 Normal termination of Gaussian 16 at Wed Jan  5 16:37:04 2022.
