Atom number=23                                                          
SP        RPM6                                                        ZDO                 
Number of atoms                            I               23
Info1-9                                    I   N=           9
          78          77           0           0           0         111
           1           8        2302
Full Title                                 C   N=           2
Atom number=23          
Route                                      C   N=           9
#p int=acc2e=12 pm6 charge nosymm int=acc2e=12 scf=(noincfoc
k,novaracc,fermi,maxcycle=128,ndamp=64,xqc)     
Charge                                     I                6
Multiplicity                               I                1
Number of electrons                        I               98
Number of alpha electrons                  I               49
Number of beta electrons                   I               49
Number of basis functions                  I               89
Number of independent functions            I               89
Number of point charges in /Mol/           I                0
Number of translation vectors              I                0
Atomic numbers                             I   N=          23
           6           8           7           6           6           8
           7           6           6           8           7           6
           6           8           6           6           6           6
           6           8           8           6           1
Nuclear charges                            R   N=          23
  4.00000000E+00  6.00000000E+00  5.00000000E+00  4.00000000E+00  4.00000000E+00
  6.00000000E+00  5.00000000E+00  4.00000000E+00  4.00000000E+00  6.00000000E+00
  5.00000000E+00  4.00000000E+00  4.00000000E+00  6.00000000E+00  4.00000000E+00
  4.00000000E+00  4.00000000E+00  4.00000000E+00  4.00000000E+00  6.00000000E+00
  6.00000000E+00  4.00000000E+00  1.00000000E+00
Current cartesian coordinates              R   N=          69
  6.47042225E+00  1.82358571E+00  3.33177613E+01  5.92618113E+00  3.98732212E+00
  3.32818565E+01  5.99610099E+00  2.43774670E-01  3.52377230E+01  4.83580915E+00
  9.75098680E-01  3.76112191E+01  6.33058252E+00 -2.30546587E-01  3.97107048E+01
  6.36081814E+00 -2.53034328E+00  3.99488103E+01  7.68551615E+00  1.30013157E+00
  4.11355583E+01  9.23698130E+00  3.87393856E-01  4.31821317E+01  8.22030864E+00
  1.45319939E+00  4.56822393E+01  7.86315040E+00  3.74354745E+00  4.58617633E+01
  7.68173670E+00 -2.26767135E-01  4.75285018E+01  7.02978118E+00  5.91484277E-01
  5.01060882E+01  2.15050833E+00 -3.96842486E-02  3.77623971E+01  7.42662367E-01
  7.44552093E-01  3.55722046E+01  9.18406897E-01  9.46752788E-01  3.99998329E+01
  1.20224376E+01  1.16029184E+00  4.28060762E+01  1.35153212E+01  5.61248659E-01
  4.51153215E+01  1.31392657E+01 -2.28656861E-01  4.05440740E+01  9.33713678E+00
  2.64561657E-01  5.18162903E+01  1.07978951E+01 -1.52878843E+00  5.15649568E+01
  9.92106215E+00  1.80468845E+00  5.34679110E+01  4.72242559E+00 -7.97464425E-01
  5.11397684E+01  7.45825370E+00  1.05764874E+00  3.17284087E+01
Number of symbols in /Mol/                 I                0
Int Atom Types                             I   N=          23
           0           0           0           0           0           0
           0           0           0           0           0           0
           0           0           0           0           0           0
           0           0           0           0           0
Force Field                                I                0
Atom Types                                 C   N=          23
                                                            
                                                            
                                                            
                                                            
                                    
MM charges                                 R   N=          23
  0.00000000E+00  0.00000000E+00  0.00000000E+00  0.00000000E+00  0.00000000E+00
  0.00000000E+00  0.00000000E+00  0.00000000E+00  0.00000000E+00  0.00000000E+00
  0.00000000E+00  0.00000000E+00  0.00000000E+00  0.00000000E+00  0.00000000E+00
  0.00000000E+00  0.00000000E+00  0.00000000E+00  0.00000000E+00  0.00000000E+00
  0.00000000E+00  0.00000000E+00  0.00000000E+00
Integer atomic weights                     I   N=          23
          12          16          14          12          12          16
          14          12          12          16          14          12
          12          16          12          12          12          12
          12          16          16          12           1
Real atomic weights                        R   N=          23
  1.20000000E+01  1.59949146E+01  1.40030740E+01  1.20000000E+01  1.20000000E+01
  1.59949146E+01  1.40030740E+01  1.20000000E+01  1.20000000E+01  1.59949146E+01
  1.40030740E+01  1.20000000E+01  1.20000000E+01  1.59949146E+01  1.20000000E+01
  1.20000000E+01  1.20000000E+01  1.20000000E+01  1.20000000E+01  1.59949146E+01
  1.59949146E+01  1.20000000E+01  1.00782504E+00
Atom fragment info                         I   N=          23
           0           0           0           0           0           0
           0           0           0           0           0           0
           0           0           0           0           0           0
           0           0           0           0           0
Atom residue num                           I   N=          23
           0           0           0           0           0           0
           0           0           0           0           0           0
           0           0           0           0           0           0
           0           0           0           0           0
Nuclear spins                              I   N=          23
           0           0           2           0           0           0
           2           0           0           0           2           0
           0           0           0           0           0           0
           0           0           0           0           1
Nuclear ZEff                               R   N=          23
 -3.90000000E+00 -6.00000000E+00 -4.90000000E+00 -3.90000000E+00 -3.90000000E+00
 -6.00000000E+00 -4.90000000E+00 -3.90000000E+00 -3.90000000E+00 -6.00000000E+00
 -4.90000000E+00 -3.90000000E+00 -3.90000000E+00 -6.00000000E+00 -3.90000000E+00
 -3.90000000E+00 -3.90000000E+00 -3.90000000E+00 -3.90000000E+00 -6.00000000E+00
 -6.00000000E+00 -3.90000000E+00 -1.00000000E+00
Nuclear ZNuc                               R   N=          23
  6.00000000E+00  8.00000000E+00  7.00000000E+00  6.00000000E+00  6.00000000E+00
  8.00000000E+00  7.00000000E+00  6.00000000E+00  6.00000000E+00  8.00000000E+00
  7.00000000E+00  6.00000000E+00  6.00000000E+00  8.00000000E+00  6.00000000E+00
  6.00000000E+00  6.00000000E+00  6.00000000E+00  6.00000000E+00  8.00000000E+00
  8.00000000E+00  6.00000000E+00  1.00000000E+00
Nuclear QMom                               R   N=          23
  0.00000000E+00  0.00000000E+00  2.04400000E+00  0.00000000E+00  0.00000000E+00
  0.00000000E+00  2.04400000E+00  0.00000000E+00  0.00000000E+00  0.00000000E+00
  2.04400000E+00  0.00000000E+00  0.00000000E+00  0.00000000E+00  0.00000000E+00
  0.00000000E+00  0.00000000E+00  0.00000000E+00  0.00000000E+00  0.00000000E+00
  0.00000000E+00  0.00000000E+00  0.00000000E+00
Nuclear GFac                               R   N=          23
  0.00000000E+00  0.00000000E+00  4.03761000E-01  0.00000000E+00  0.00000000E+00
  0.00000000E+00  4.03761000E-01  0.00000000E+00  0.00000000E+00  0.00000000E+00
  4.03761000E-01  0.00000000E+00  0.00000000E+00  0.00000000E+00  0.00000000E+00
  0.00000000E+00  0.00000000E+00  0.00000000E+00  0.00000000E+00  0.00000000E+00
  0.00000000E+00  0.00000000E+00  2.79284600E+00
MicOpt                                     I   N=          23
          -1          -1          -1          -1          -1          -1
          -1          -1          -1          -1          -1          -1
          -1          -1          -1          -1          -1          -1
          -1          -1          -1          -1          -1
Number of residues                         I                0
Number of secondary structures             I                0
Number of contracted shells                I               23
Number of primitive shells                 I              138
Pure/Cartesian d shells                    I                0
Pure/Cartesian f shells                    I                0
Highest angular momentum                   I                1
Largest degree of contraction              I                6
Shell types                                I   N=          23
          -1          -1          -1          -1          -1          -1
          -1          -1          -1          -1          -1          -1
          -1          -1          -1          -1          -1          -1
          -1          -1          -1          -1           0
Number of primitives per shell             I   N=          23
           6           6           6           6           6           6
           6           6           6           6           6           6
           6           6           6           6           6           6
           6           6           6           6           6
Shell to atom map                          I   N=          23
           1           2           3           4           5           6
           7           8           9          10          11          12
          13          14          15          16          17          18
          19          20          21          22          23
Primitive exponents                        R   N=         138
  1.14476344E+01  3.29633588E+00  1.29653143E+00  5.92558930E-01  2.94896438E-01
  1.51447622E-01  8.02643074E+01  2.31120341E+01  9.09054165E+00  4.15468650E+00
  2.06764625E+00  1.06186467E+00  1.54719623E+01  4.45513742E+00  1.75231709E+00
  8.00868468E-01  3.98565014E-01  2.04687870E-01  1.14476344E+01  3.29633588E+00
  1.29653143E+00  5.92558930E-01  2.94896438E-01  1.51447622E-01  1.14476344E+01
  3.29633588E+00  1.29653143E+00  5.92558930E-01  2.94896438E-01  1.51447622E-01
  8.02643074E+01  2.31120341E+01  9.09054165E+00  4.15468650E+00  2.06764625E+00
  1.06186467E+00  1.54719623E+01  4.45513742E+00  1.75231709E+00  8.00868468E-01
  3.98565014E-01  2.04687870E-01  1.14476344E+01  3.29633588E+00  1.29653143E+00
  5.92558930E-01  2.94896438E-01  1.51447622E-01  1.14476344E+01  3.29633588E+00
  1.29653143E+00  5.92558930E-01  2.94896438E-01  1.51447622E-01  8.02643074E+01
  2.31120341E+01  9.09054165E+00  4.15468650E+00  2.06764625E+00  1.06186467E+00
  1.54719623E+01  4.45513742E+00  1.75231709E+00  8.00868468E-01  3.98565014E-01
  2.04687870E-01  1.14476344E+01  3.29633588E+00  1.29653143E+00  5.92558930E-01
  2.94896438E-01  1.51447622E-01  1.14476344E+01  3.29633588E+00  1.29653143E+00
  5.92558930E-01  2.94896438E-01  1.51447622E-01  8.02643074E+01  2.31120341E+01
  9.09054165E+00  4.15468650E+00  2.06764625E+00  1.06186467E+00  1.14476344E+01
  3.29633588E+00  1.29653143E+00  5.92558930E-01  2.94896438E-01  1.51447622E-01
  1.14476344E+01  3.29633588E+00  1.29653143E+00  5.92558930E-01  2.94896438E-01
  1.51447622E-01  1.14476344E+01  3.29633588E+00  1.29653143E+00  5.92558930E-01
  2.94896438E-01  1.51447622E-01  1.14476344E+01  3.29633588E+00  1.29653143E+00
  5.92558930E-01  2.94896438E-01  1.51447622E-01  1.14476344E+01  3.29633588E+00
  1.29653143E+00  5.92558930E-01  2.94896438E-01  1.51447622E-01  8.02643074E+01
  2.31120341E+01  9.09054165E+00  4.15468650E+00  2.06764625E+00  1.06186467E+00
  8.02643074E+01  2.31120341E+01  9.09054165E+00  4.15468650E+00  2.06764625E+00
  1.06186467E+00  1.14476344E+01  3.29633588E+00  1.29653143E+00  5.92558930E-01
  2.94896438E-01  1.51447622E-01  4.39461478E+00  1.26542531E+00  4.97723458E-01
  2.27476537E-01  1.13207340E-01  5.81389949E-02
Contraction coefficients                   R   N=         138
 -9.73739553E-03 -7.26587678E-02 -1.71615520E-01  1.28977624E-01  7.28861451E-01
  3.01331742E-01 -9.73739553E-03 -7.26587678E-02 -1.71615520E-01  1.28977624E-01
  7.28861451E-01  3.01331742E-01 -9.73739553E-03 -7.26587678E-02 -1.71615520E-01
  1.28977624E-01  7.28861451E-01  3.01331742E-01 -9.73739553E-03 -7.26587678E-02
 -1.71615520E-01  1.28977624E-01  7.28861451E-01  3.01331742E-01 -9.73739553E-03
 -7.26587678E-02 -1.71615520E-01  1.28977624E-01  7.28861451E-01  3.01331742E-01
 -9.73739553E-03 -7.26587678E-02 -1.71615520E-01  1.28977624E-01  7.28861451E-01
  3.01331742E-01 -9.73739553E-03 -7.26587678E-02 -1.71615520E-01  1.28977624E-01
  7.28861451E-01  3.01331742E-01 -9.73739553E-03 -7.26587678E-02 -1.71615520E-01
  1.28977624E-01  7.28861451E-01  3.01331742E-01 -9.73739553E-03 -7.26587678E-02
 -1.71615520E-01  1.28977624E-01  7.28861451E-01  3.01331742E-01 -9.73739553E-03
 -7.26587678E-02 -1.71615520E-01  1.28977624E-01  7.28861451E-01  3.01331742E-01
 -9.73739553E-03 -7.26587678E-02 -1.71615520E-01  1.28977624E-01  7.28861451E-01
  3.01331742E-01 -9.73739553E-03 -7.26587678E-02 -1.71615520E-01  1.28977624E-01
  7.28861451E-01  3.01331742E-01 -9.73739553E-03 -7.26587678E-02 -1.71615520E-01
  1.28977624E-01  7.28861451E-01  3.01331742E-01 -9.73739553E-03 -7.26587678E-02
 -1.71615520E-01  1.28977624E-01  7.28861451E-01  3.01331742E-01 -9.73739553E-03
 -7.26587678E-02 -1.71615520E-01  1.28977624E-01  7.28861451E-01  3.01331742E-01
 -9.73739553E-03 -7.26587678E-02 -1.71615520E-01  1.28977624E-01  7.28861451E-01
  3.01331742E-01 -9.73739553E-03 -7.26587678E-02 -1.71615520E-01  1.28977624E-01
  7.28861451E-01  3.01331742E-01 -9.73739553E-03 -7.26587678E-02 -1.71615520E-01
  1.28977624E-01  7.28861451E-01  3.01331742E-01 -9.73739553E-03 -7.26587678E-02
 -1.71615520E-01  1.28977624E-01  7.28861451E-01  3.01331742E-01 -9.73739553E-03
 -7.26587678E-02 -1.71615520E-01  1.28977624E-01  7.28861451E-01  3.01331742E-01
 -9.73739553E-03 -7.26587678E-02 -1.71615520E-01  1.28977624E-01  7.28861451E-01
  3.01331742E-01 -9.73739553E-03 -7.26587678E-02 -1.71615520E-01  1.28977624E-01
  7.28861451E-01  3.01331742E-01 -9.73739553E-03 -7.26587678E-02 -1.71615520E-01
  1.28977624E-01  7.28861451E-01  3.01331742E-01
P(S=P) Contraction coefficients            R   N=         138
 -8.10494336E-03 -1.71547892E-02  7.36978576E-02  3.96514999E-01  4.97808488E-01
  1.17482582E-01 -8.10494336E-03 -1.71547892E-02  7.36978576E-02  3.96514999E-01
  4.97808488E-01  1.17482582E-01 -8.10494336E-03 -1.71547892E-02  7.36978576E-02
  3.96514999E-01  4.97808488E-01  1.17482582E-01 -8.10494336E-03 -1.71547892E-02
  7.36978576E-02  3.96514999E-01  4.97808488E-01  1.17482582E-01 -8.10494336E-03
 -1.71547892E-02  7.36978576E-02  3.96514999E-01  4.97808488E-01  1.17482582E-01
 -8.10494336E-03 -1.71547892E-02  7.36978576E-02  3.96514999E-01  4.97808488E-01
  1.17482582E-01 -8.10494336E-03 -1.71547892E-02  7.36978576E-02  3.96514999E-01
  4.97808488E-01  1.17482582E-01 -8.10494336E-03 -1.71547892E-02  7.36978576E-02
  3.96514999E-01  4.97808488E-01  1.17482582E-01 -8.10494336E-03 -1.71547892E-02
  7.36978576E-02  3.96514999E-01  4.97808488E-01  1.17482582E-01 -8.10494336E-03
 -1.71547892E-02  7.36978576E-02  3.96514999E-01  4.97808488E-01  1.17482582E-01
 -8.10494336E-03 -1.71547892E-02  7.36978576E-02  3.96514999E-01  4.97808488E-01
  1.17482582E-01 -8.10494336E-03 -1.71547892E-02  7.36978576E-02  3.96514999E-01
  4.97808488E-01  1.17482582E-01 -8.10494336E-03 -1.71547892E-02  7.36978576E-02
  3.96514999E-01  4.97808488E-01  1.17482582E-01 -8.10494336E-03 -1.71547892E-02
  7.36978576E-02  3.96514999E-01  4.97808488E-01  1.17482582E-01 -8.10494336E-03
 -1.71547892E-02  7.36978576E-02  3.96514999E-01  4.97808488E-01  1.17482582E-01
 -8.10494336E-03 -1.71547892E-02  7.36978576E-02  3.96514999E-01  4.97808488E-01
  1.17482582E-01 -8.10494336E-03 -1.71547892E-02  7.36978576E-02  3.96514999E-01
  4.97808488E-01  1.17482582E-01 -8.10494336E-03 -1.71547892E-02  7.36978576E-02
  3.96514999E-01  4.97808488E-01  1.17482582E-01 -8.10494336E-03 -1.71547892E-02
  7.36978576E-02  3.96514999E-01  4.97808488E-01  1.17482582E-01 -8.10494336E-03
 -1.71547892E-02  7.36978576E-02  3.96514999E-01  4.97808488E-01  1.17482582E-01
 -8.10494336E-03 -1.71547892E-02  7.36978576E-02  3.96514999E-01  4.97808488E-01
  1.17482582E-01 -8.10494336E-03 -1.71547892E-02  7.36978576E-02  3.96514999E-01
  4.97808488E-01  1.17482582E-01  0.00000000E+00  0.00000000E+00  0.00000000E+00
  0.00000000E+00  0.00000000E+00  0.00000000E+00
Coordinates of each shell                  R   N=          69
  6.47042225E+00  1.82358571E+00  3.33177613E+01  5.92618113E+00  3.98732212E+00
  3.32818565E+01  5.99610099E+00  2.43774670E-01  3.52377230E+01  4.83580915E+00
  9.75098680E-01  3.76112191E+01  6.33058252E+00 -2.30546587E-01  3.97107048E+01
  6.36081814E+00 -2.53034328E+00  3.99488103E+01  7.68551615E+00  1.30013157E+00
  4.11355583E+01  9.23698130E+00  3.87393856E-01  4.31821317E+01  8.22030864E+00
  1.45319939E+00  4.56822393E+01  7.86315040E+00  3.74354745E+00  4.58617633E+01
  7.68173670E+00 -2.26767135E-01  4.75285018E+01  7.02978118E+00  5.91484277E-01
  5.01060882E+01  2.15050833E+00 -3.96842486E-02  3.77623971E+01  7.42662367E-01
  7.44552093E-01  3.55722046E+01  9.18406897E-01  9.46752788E-01  3.99998329E+01
  1.20224376E+01  1.16029184E+00  4.28060762E+01  1.35153212E+01  5.61248659E-01
  4.51153215E+01  1.31392657E+01 -2.28656861E-01  4.05440740E+01  9.33713678E+00
  2.64561657E-01  5.18162903E+01  1.07978951E+01 -1.52878843E+00  5.15649568E+01
  9.92106215E+00  1.80468845E+00  5.34679110E+01  4.72242559E+00 -7.97464425E-01
  5.11397684E+01  7.45825370E+00  1.05764874E+00  3.17284087E+01
Num ILSW                                   I              100
ILSW                                       I   N=         100
           0           0           0           0           2           0
           0           0           0           0           0          -1
           5           0           0           0           0           0
           0           0           0           0           0           0
           1           1           0           0           0           0
           0           0      100000           0          -1           0
           0           0           0           0           0           0
           0           0           0          40           0           0
           0 -2000000000           1           0           0           0
           0           0           4          52           0           0
           0           1           0           0           0           0
           0           0           0          23           0           1
           0           0           0           0           0           0
           0           0           0           0           0           0
           0           0           0           0           0           0
           0           0           0           0           0           0
           0           0           0           0
Num RLSW                                   I               52
RLSW                                       R   N=          52
  1.00000000E+00  1.00000000E+00  1.00000000E+00  1.00000000E+00  1.00000000E+00
  0.00000000E+00  0.00000000E+00  1.00000000E+00  0.00000000E+00  0.00000000E+00
  0.00000000E+00  0.00000000E+00  1.00000000E+00  0.00000000E+00  0.00000000E+00
  0.00000000E+00  0.00000000E+00  1.00000000E+00  0.00000000E+00  0.00000000E+00
  0.00000000E+00  0.00000000E+00  1.00000000E+00  0.00000000E+00  0.00000000E+00
  0.00000000E+00  0.00000000E+00  1.00000000E+00  0.00000000E+00  0.00000000E+00
  0.00000000E+00  0.00000000E+00  1.00000000E+00  0.00000000E+00  0.00000000E+00
  0.00000000E+00  0.00000000E+00  0.00000000E+00  1.00000000E+00  1.00000000E+00
  0.00000000E+00  1.00000000E+00  0.00000000E+00  0.00000000E+00  0.00000000E+00
  0.00000000E+00  0.00000000E+00  0.00000000E+00  0.00000000E+00  0.00000000E+00
  0.00000000E+00  0.00000000E+00
MxBond                                     I                3
NBond                                      I   N=          23
           3           1           2           3           3           1
           2           3           3           1           2           3
           3           1           1           3           1           1
           3           1           1           1           1
IBond                                      I   N=          69
           2           3          23           1           0           0
           1           4           0           3           5          13
           4           6           7           5           0           0
           5           8           0           7           9          16
           8          10          11           9           0           0
           9          12           0          11          19          22
           4          14          15          13           0           0
          13           0           0           8          17          18
          16           0           0          16           0           0
          12          20          21          19           0           0
          19           0           0          12           0           0
           1           0           0
RBond                                      R   N=          69
  2.00000000E+00  1.50000000E+00  1.00000000E+00  2.00000000E+00  0.00000000E+00
  0.00000000E+00  1.50000000E+00  1.00000000E+00  0.00000000E+00  1.00000000E+00
  1.00000000E+00  1.00000000E+00  1.00000000E+00  2.00000000E+00  1.50000000E+00
  2.00000000E+00  0.00000000E+00  0.00000000E+00  1.50000000E+00  1.00000000E+00
  0.00000000E+00  1.00000000E+00  1.00000000E+00  1.00000000E+00  1.00000000E+00
  2.00000000E+00  1.50000000E+00  2.00000000E+00  0.00000000E+00  0.00000000E+00
  1.50000000E+00  1.00000000E+00  0.00000000E+00  1.00000000E+00  1.00000000E+00
  1.00000000E+00  1.00000000E+00  1.00000000E+00  1.00000000E+00  1.00000000E+00
  0.00000000E+00  0.00000000E+00  1.00000000E+00  0.00000000E+00  0.00000000E+00
  1.00000000E+00  1.00000000E+00  1.00000000E+00  1.00000000E+00  0.00000000E+00
  0.00000000E+00  1.00000000E+00  0.00000000E+00  0.00000000E+00  1.00000000E+00
  2.00000000E+00  2.00000000E+00  2.00000000E+00  0.00000000E+00  0.00000000E+00
  2.00000000E+00  0.00000000E+00  0.00000000E+00  1.00000000E+00  0.00000000E+00
  0.00000000E+00  1.00000000E+00  0.00000000E+00  0.00000000E+00
Virial Ratio                               R      1.009818978462445E+00
SCF Energy                                 R      2.151761573520957E+00
Total Energy                               R      2.151761573520957E+00
RMS Density                                R      9.535201714204875E-09
Job Status                                 I                1
Nuclear derivative order                   I                0
External E-field                           R   N=          35
  0.00000000E+00  0.00000000E+00  0.00000000E+00  0.00000000E+00  0.00000000E+00
  0.00000000E+00  0.00000000E+00  0.00000000E+00  0.00000000E+00  0.00000000E+00
  0.00000000E+00  0.00000000E+00  0.00000000E+00  0.00000000E+00  0.00000000E+00
  0.00000000E+00  0.00000000E+00  0.00000000E+00  0.00000000E+00  0.00000000E+00
  0.00000000E+00  0.00000000E+00  0.00000000E+00  0.00000000E+00  0.00000000E+00
  0.00000000E+00  0.00000000E+00  0.00000000E+00  0.00000000E+00  0.00000000E+00
  0.00000000E+00  0.00000000E+00  0.00000000E+00  0.00000000E+00  0.00000000E+00
IOpCl                                      I                0
IROHF                                      I                0
Alpha Orbital Energies                     R   N=          89
 -2.06653145E+00 -2.03948366E+00 -1.97847827E+00 -1.97621750E+00 -1.95884274E+00
 -1.92619518E+00 -1.88057895E+00 -1.87823899E+00 -1.87265260E+00 -1.80267700E+00
 -1.77212200E+00 -1.73973574E+00 -1.70424216E+00 -1.65199351E+00 -1.60106597E+00
 -1.57619936E+00 -1.53096637E+00 -1.51692639E+00 -1.48966867E+00 -1.44782912E+00
 -1.42484119E+00 -1.40759072E+00 -1.39279822E+00 -1.38873878E+00 -1.37580127E+00
 -1.36756114E+00 -1.36506471E+00 -1.35934477E+00 -1.35469058E+00 -1.33085556E+00
 -1.30908752E+00 -1.30316660E+00 -1.28316546E+00 -1.27578616E+00 -1.26245765E+00
 -1.25126875E+00 -1.22785055E+00 -1.22233710E+00 -1.21232366E+00 -1.18428454E+00
 -1.17839061E+00 -1.17761181E+00 -1.17609401E+00 -1.16037910E+00 -1.14276056E+00
 -1.13982959E+00 -1.12710130E+00 -1.11859525E+00 -1.11294921E+00 -9.50281062E-01
 -9.42492014E-01 -8.98023293E-01 -8.84417830E-01 -8.52407569E-01 -8.28797703E-01
 -8.25650057E-01 -8.04590103E-01 -7.88675632E-01 -7.83167485E-01 -7.78091253E-01
 -7.69287889E-01 -7.62064940E-01 -7.55241397E-01 -7.53197401E-01 -7.43045528E-01
 -7.37034619E-01 -7.28725732E-01 -7.22981202E-01 -7.12503620E-01 -7.09165127E-01
 -7.07161466E-01 -7.00817151E-01 -6.88959806E-01 -6.83152610E-01 -6.81519951E-01
 -6.62542224E-01 -6.60314020E-01 -6.51358959E-01 -6.47875870E-01 -6.46131869E-01
 -6.40591301E-01 -6.30875648E-01 -6.18572308E-01 -6.11499312E-01 -6.09834989E-01
 -6.04536164E-01 -5.93383657E-01 -5.76572689E-01 -5.47868867E-01
Alpha MO coefficients                      R   N=        7921
  4.50291808E-01 -9.32629510E-02  2.79837303E-01  5.89291190E-02  7.34420112E-01
  6.38635156E-02 -2.87576951E-01  2.69681376E-02  2.05917357E-01 -1.02619670E-02
  1.22953652E-01 -4.80070104E-02  7.08174015E-02  1.92579820E-02  5.18965473E-03
 -5.69269416E-02  9.35014364E-03 -2.85430294E-03  5.47947390E-03 -1.24723564E-02
 -1.67211295E-03 -6.66290521E-04  1.23387669E-03 -2.61965322E-03  6.13107314E-04
 -1.05127249E-03  2.77708980E-04 -3.23671047E-03 -1.41606964E-03  4.49674403E-04
 -2.10929742E-04  1.59546156E-04 -7.95027030E-04 -1.51434489E-05 -1.57809906E-05
  3.14698745E-04 -3.93978269E-04 -5.45118650E-05  3.15755506E-04  1.16944996E-04
 -2.68808530E-04 -3.89737465E-05 -1.21612625E-04  1.64185423E-04 -2.12669751E-05
 -8.52160775E-06 -1.01392819E-05  5.05053917E-05  1.65794194E-02  1.26241203E-02
  7.02834711E-03 -9.69314476E-03  8.92509749E-03  7.36996411E-03 -1.96208463E-04
  3.19514299E-03  1.03392201E-03  1.79715170E-03  2.26678219E-04 -2.29509658E-03
 -3.25753735E-04  2.82004326E-04  6.27784270E-05 -3.59017051E-05 -7.18348280E-05
  7.16767835E-05 -4.89512830E-06  4.01082967E-05 -6.76986446E-05  4.60893433E-05
 -1.03363831E-05 -6.05944406E-05  2.60247833E-05  7.67859507E-06  3.84769357E-06
  1.74987433E-05  1.57664098E-05 -5.36614080E-06  8.78250301E-06  4.66865755E-06
  4.00077112E-05 -3.90840188E-06 -1.18757311E-05 -1.04231284E-05  4.90929518E-06
  1.79966467E-06 -8.86036442E-07  2.83929199E-06  1.01269569E-01 -2.04205143E-05
  3.90308134E-06 -1.73257347E-05 -6.87082146E-06 -4.14112421E-05 -3.70030530E-06
  1.44086945E-05 -2.05497983E-06 -3.59758714E-05 -1.70499522E-06 -4.26813831E-06
 -3.46100241E-05 -1.46426148E-04 -8.00867849E-05  5.48734926E-05 -1.14217875E-04
 -8.62358003E-04 -2.60069249E-04 -3.67648810E-07 -3.75913103E-04 -4.76582931E-04
 -5.31718019E-05 -3.82151694E-04 -5.55460368E-05 -1.66738019E-03 -8.45241680E-05
  4.65886176E-04 -4.76842468E-04 -1.95646659E-03  7.23514775E-04 -3.81918808E-04
 -2.76823118E-04 -1.47438230E-03  1.31604398E-03 -2.59208201E-04  3.42788058E-03
 -1.33571947E-03  3.23415903E-04  7.71794963E-04  6.91704724E-04  8.05886941E-03
  6.22849654E-03  1.98406096E-03  1.32654011E-02  6.84812061E-02  6.17127919E-02
 -3.67085954E-03  5.28523521E-02 -2.98219105E-05 -4.02020553E-05 -2.41852023E-06
 -2.73480727E-05  2.28680463E-05  2.10878876E-06 -1.95110574E-06  4.73707192E-06
 -1.79965063E-05 -1.82555478E-05  4.00159869E-06  2.79091002E-06 -3.89872049E-04
  3.42486449E-04  5.73294579E-05 -4.07289549E-05 -1.63976011E-05 -1.54158512E-05
  3.68605753E-06  2.23370188E-04 -7.85870221E-05  6.85732146E-05 -2.83631599E-05
 -5.77871071E-05  4.76528679E-01  1.58218838E-01  8.28236957E-02  1.87133125E-01
  3.15575544E-01 -9.83436095E-02  1.71781419E-01  5.58153557E-02  6.90525608E-01
 -4.94933650E-02 -1.93070253E-01 -1.88528392E-01  1.13731339E-02  1.59408569E-02
  4.66529739E-03  2.94683296E-03 -3.42525915E-06  1.51822070E-02 -3.37542686E-03
 -4.20946550E-02  3.50876587E-02 -6.04959404E-02 -5.37973289E-03  6.53164257E-03
  8.51222688E-03  1.46028771E-01 -1.99957091E-02  2.11032692E-02  5.68863942E-02
  2.20445230E-01  5.36908543E-02 -7.44188024E-02  4.93283333E-02  5.23146145E-01
  5.30060664E-02 -1.17392298E-01  6.94088792E-02  4.45082988E-01  7.55744614E-03
  2.71291303E-01 -1.56002417E-02  4.20661676E-01 -5.63389606E-02 -1.71340703E-01
 -3.69273107E-02  1.72136663E-01 -7.45599359E-02  2.02207409E-02 -6.68374677E-02
  1.32581008E-01 -9.14080761E-03  2.37178733E-02 -1.39905017E-02  1.08137189E-01
  8.48337030E-03 -6.42069380E-02 -8.89689710E-03  8.33819393E-02  5.65600099E-03
  3.21657013E-02 -1.20545761E-02  3.33253924E-02  1.18807602E-02 -8.65592219E-03
 -1.91189887E-02  9.12237812E-02  5.68689131E-02  1.59751423E-02  1.65302272E-02
  7.83043201E-03  1.35311116E-02 -1.58425910E-03  1.11790390E-02  3.75025174E-02
  2.41801083E-02 -7.28412673E-03 -1.69050529E-02  3.46573050E-02 -3.48159593E-02
 -8.04317885E-03 -4.29446846E-03  4.40053936E-03 -6.69343352E-03  2.66990642E-04
 -3.09791759E-03  1.18167073E-02 -1.08526517E-02  2.67185678E-03  5.13468628E-03
  3.60787429E-02  2.09931081E-02 -6.20871100E-02 -3.56241462E-02  1.17691602E-01
 -2.87986336E-02  2.75255790E-02 -2.51574830E-03 -7.52439827E-02  9.48524302E-03
 -2.47743003E-04  6.39521377E-03  6.82067304E-03  5.50371127E-03  1.42072389E-03
 -3.64250410E-03  1.58053625E-03 -4.25727124E-03  9.14952914E-04  1.13730202E-02
 -9.30245306E-03  1.62885088E-02  1.44153913E-03 -1.68903799E-03 -2.26869538E-03
 -3.82918828E-02  5.27587336E-03 -5.75462256E-03 -1.40490305E-02 -5.50183491E-02