 Entering Gaussian System, Link 0=g16
 Input=4znn_01_gebf_pm6_9.gjf
 Output=4znn_01_gebf_pm6_9.log
 Initial command:
 /work/01114/jfonner/frontera/gaussian/16rC.01/g16/l1.exe "/scratch1/08249/sa748948/lsqc/36120880/Gau-187807.inp" -scrdir="/scratch1/08249/sa748948/lsqc/36120880/"
 Entering Link 1 = /work/01114/jfonner/frontera/gaussian/16rC.01/g16/l1.exe PID=    187817.
  
 Copyright (c) 1988-2019, Gaussian, Inc.  All Rights Reserved.
  
 This is part of the Gaussian(R) 16 program.  It is based on
 the Gaussian(R) 09 system (copyright 2009, Gaussian, Inc.),
 the Gaussian(R) 03 system (copyright 2003, Gaussian, Inc.),
 the Gaussian(R) 98 system (copyright 1998, Gaussian, Inc.),
 the Gaussian(R) 94 system (copyright 1995, Gaussian, Inc.),
 the Gaussian 92(TM) system (copyright 1992, Gaussian, Inc.),
 the Gaussian 90(TM) system (copyright 1990, Gaussian, Inc.),
 the Gaussian 88(TM) system (copyright 1988, Gaussian, Inc.),
 the Gaussian 86(TM) system (copyright 1986, Carnegie Mellon
 University), and the Gaussian 82(TM) system (copyright 1983,
 Carnegie Mellon University). Gaussian is a federally registered
 trademark of Gaussian, Inc.
  
 This software contains proprietary and confidential information,
 including trade secrets, belonging to Gaussian, Inc.
  
 This software is provided under written license and may be
 used, copied, transmitted, or stored only in accord with that
 written license.
  
 The following legend is applicable only to US Government
 contracts under FAR:
  
                    RESTRICTED RIGHTS LEGEND
  
 Use, reproduction and disclosure by the US Government is
 subject to restrictions as set forth in subparagraphs (a)
 and (c) of the Commercial Computer Software - Restricted
 Rights clause in FAR 52.227-19.
  
 Gaussian, Inc.
 340 Quinnipiac St., Bldg. 40, Wallingford CT 06492
  
  
 ---------------------------------------------------------------
 Warning -- This program may not be used in any manner that
 competes with the business of Gaussian, Inc. or will provide
 assistance to any competitor of Gaussian, Inc.  The licensee
 of this program is prohibited from giving any competitor of
 Gaussian, Inc. access to this program.  By using this program,
 the user acknowledges that Gaussian, Inc. is engaged in the
 business of creating and licensing software in the field of
 computational chemistry and represents and warrants to the
 licensee that it is not a competitor of Gaussian, Inc. and that
 it will not use this program in any manner prohibited above.
 ---------------------------------------------------------------
  

 Cite this work as:
 Gaussian 16, Revision C.01,
 M. J. Frisch, G. W. Trucks, H. B. Schlegel, G. E. Scuseria, 
 M. A. Robb, J. R. Cheeseman, G. Scalmani, V. Barone, 
 G. A. Petersson, H. Nakatsuji, X. Li, M. Caricato, A. V. Marenich, 
 J. Bloino, B. G. Janesko, R. Gomperts, B. Mennucci, H. P. Hratchian, 
 J. V. Ortiz, A. F. Izmaylov, J. L. Sonnenberg, D. Williams-Young, 
 F. Ding, F. Lipparini, F. Egidi, J. Goings, B. Peng, A. Petrone, 
 T. Henderson, D. Ranasinghe, V. G. Zakrzewski, J. Gao, N. Rega, 
 G. Zheng, W. Liang, M. Hada, M. Ehara, K. Toyota, R. Fukuda, 
 J. Hasegawa, M. Ishida, T. Nakajima, Y. Honda, O. Kitao, H. Nakai, 
 T. Vreven, K. Throssell, J. A. Montgomery, Jr., J. E. Peralta, 
 F. Ogliaro, M. J. Bearpark, J. J. Heyd, E. N. Brothers, K. N. Kudin, 
 V. N. Staroverov, T. A. Keith, R. Kobayashi, J. Normand, 
 K. Raghavachari, A. P. Rendell, J. C. Burant, S. S. Iyengar, 
 J. Tomasi, M. Cossi, J. M. Millam, M. Klene, C. Adamo, R. Cammi, 
 J. W. Ochterski, R. L. Martin, K. Morokuma, O. Farkas, 
 J. B. Foresman, and D. J. Fox, Gaussian, Inc., Wallingford CT, 2019.
 
 ******************************************
 Gaussian 16:  ES64L-G16RevC.01  3-Jul-2019
                 5-Jan-2022 
 ******************************************
 %chk=4znn_01_gebf_pm6_9.chk
 %nproc=56
 Will use up to   56 processors via shared memory.
 %mem=3gb
 ---------------------------------
 #p int=acc2e=12 pm6 charge nosymm
 ---------------------------------
 1/18=10,28=-2,38=1,125=101,172=1/1;
 2/12=2,15=1,17=6,18=5,40=1/2;
 3/5=2,25=1,27=12,41=3900000/1,2,3;
 4/35=1/1;
 5/5=2,35=1,38=5,87=12/2;
 6/7=2,8=2,9=2,10=2,28=1,87=12/1;
 99/5=1,9=1/99;
 Leave Link    1 at Wed Jan  5 15:21:27 2022, MaxMem=   402653184 cpu:               2.1 elap:               0.5
 (Enter /work/01114/jfonner/frontera/gaussian/16rC.01/g16/l101.exe)
 --------------
 Atom number=14
 --------------
 Symbolic Z-matrix:
 Charge =  2 Multiplicity = 1
 c                    -4.357    -0.673     2.588 
 o                    -4.212    -1.87      2.492 
 n                    -3.381     0.125     2.953 
 c                    -2.062    -0.39      3.274 
 c                    -1.636     0.175     4.6 
 o                    -1.744     1.356     4.862 
 n                    -1.095    -0.7       5.415 
 c                    -0.572    -0.311     6.669 
 c                    -0.993    -0.045     2.197 
 c                     0.39     -0.488     2.64 
 h                    -5.30553  -0.20118   2.43772 
 h                    -1.26955  -0.4882    1.26319 
 h                     0.42341  -0.6938    6.75571 
 h                    -1.15903  -0.7322    7.45823 
 
 ITRead=  0  0  0  0  0  0  0  0  0  0  0  0  0  0
 MicOpt= -1 -1 -1 -1 -1 -1 -1 -1 -1 -1 -1 -1 -1 -1
 NAtoms=     14 NQM=       14 NQMF=       0 NMMI=      0 NMMIF=      0
                NMic=       0 NMicF=      0.
                    Isotopes and Nuclear Properties:
 (Nuclear quadrupole moments (NQMom) in fm**2, nuclear magnetic moments (NMagM)
  in nuclear magnetons)

  Atom         1           2           3           4           5           6           7           8           9          10
 IAtWgt=          12          16          14          12          12          16          14          12          12          12
 AtmWgt=  12.0000000  15.9949146  14.0030740  12.0000000  12.0000000  15.9949146  14.0030740  12.0000000  12.0000000  12.0000000
 NucSpn=           0           0           2           0           0           0           2           0           0           0
 AtZEff=  -0.0000000  -0.0000000  -0.0000000  -0.0000000  -0.0000000  -0.0000000  -0.0000000  -0.0000000  -0.0000000  -0.0000000
 NQMom=    0.0000000   0.0000000   2.0440000   0.0000000   0.0000000   0.0000000   2.0440000   0.0000000   0.0000000   0.0000000
 NMagM=    0.0000000   0.0000000   0.4037610   0.0000000   0.0000000   0.0000000   0.4037610   0.0000000   0.0000000   0.0000000
 AtZNuc=   6.0000000   8.0000000   7.0000000   6.0000000   6.0000000   8.0000000   7.0000000   6.0000000   6.0000000   6.0000000

  Atom        11          12          13          14
 IAtWgt=           1           1           1           1
 AtmWgt=   1.0078250   1.0078250   1.0078250   1.0078250
 NucSpn=           1           1           1           1
 AtZEff=  -0.0000000  -0.0000000  -0.0000000  -0.0000000
 NQMom=    0.0000000   0.0000000   0.0000000   0.0000000
 NMagM=    2.7928460   2.7928460   2.7928460   2.7928460
 AtZNuc=   1.0000000   1.0000000   1.0000000   1.0000000
 Background charge distribution read from input stream:
 Point Charges:
 XYZ=   -6.8150   -0.6680    1.6070 Q=    0.1840 A=    0.0000 R=    0.0000 C=    0.0000
 XYZ=   -5.7140    0.0020    2.3730 Q=    0.1690 A=    0.0000 R=    0.0000 C=    0.0000
 XYZ=   -1.3780   -0.6620    0.8970 Q=    0.8742 A=    0.0000 R=    0.0000 C=    0.0000
 XYZ=    0.8400   -0.8540    6.7920 Q=    0.2936 A=    0.0000 R=    0.0000 C=    0.0000
 XYZ=    1.0270   -2.0220    6.7200 Q=   -0.4615 A=    0.0000 R=    0.0000 C=    0.0000
 XYZ=   -1.4110   -0.9130    7.7970 Q=   -1.2093 A=    0.0000 R=    0.0000 C=    0.0000
 XYZ=   -0.7270   -0.6450    9.1230 Q=    0.9838 A=    0.0000 R=    0.0000 C=    0.0000
 XYZ=   -2.8000   -0.3490    7.7890 Q=    0.9737 A=    0.0000 R=    0.0000 C=    0.0000
 XYZ=    1.8100    0.0020    7.0230 Q=   -0.6094 A=    0.0000 R=    0.0000 C=    0.0000
 XYZ=    3.1910   -0.4290    7.1010 Q=   -0.0383 A=    0.0000 R=    0.0000 C=    0.0000
 XYZ=    3.9110    0.2580    8.2290 Q=    0.2652 A=    0.0000 R=    0.0000 C=    0.0000
 XYZ=    4.0640    1.4780    8.2280 Q=   -0.5489 A=    0.0000 R=    0.0000 C=    0.0000
 XYZ=    3.8710   -0.1030    5.7480 Q=    0.4467 A=    0.0000 R=    0.0000 C=    0.0000
 XYZ=    5.2470   -0.6430    5.5810 Q=   -0.4177 A=    0.0000 R=    0.0000 C=    0.0000
 XYZ=    5.8610   -0.6890    4.3530 Q=   -0.2968 A=    0.0000 R=    0.0000 C=    0.0000
 XYZ=    6.1080   -1.1970    6.4480 Q=    0.2630 A=    0.0000 R=    0.0000 C=    0.0000
 XYZ=    7.0590   -1.2270    4.4820 Q=    0.6103 A=    0.0000 R=    0.0000 C=    0.0000
 XYZ=    7.2390   -1.5230    5.7510 Q=   -0.3347 A=    0.0000 R=    0.0000 C=    0.0000
 XYZ=    4.3640   -0.5270    9.1890 Q=   -0.5070 A=    0.0000 R=    0.0000 C=    0.0000
 XYZ=    5.0670    0.0200   10.3260 Q=    0.3996 A=    0.0000 R=    0.0000 C=    0.0000
 XYZ=    4.2710    0.8170   11.2960 Q=    0.1621 A=    0.0000 R=    0.0000 C=    0.0000
 XYZ=    4.3590    2.0330   11.3670 Q=   -0.2980 A=    0.0000 R=    0.0000 C=    0.0000
 XYZ=    3.4920    0.1040   12.0730 Q=   -0.4667 A=    0.0000 R=    0.0000 C=    0.0000
 XYZ=    2.5850    0.6770   13.0850 Q=    0.2746 A=    0.0000 R=    0.0000 C=    0.0000
 XYZ=    3.0060    0.0470   14.3610 Q=    0.2391 A=    0.0000 R=    0.0000 C=    0.0000
 XYZ=    2.9580   -1.1690   14.5150 Q=   -0.4626 A=    0.0000 R=    0.0000 C=    0.0000
 XYZ=    1.1270    0.3300   12.8270 Q=   -1.2217 A=    0.0000 R=    0.0000 C=    0.0000
 XYZ=    0.2480    0.6750   14.0380 Q=    0.9822 A=    0.0000 R=    0.0000 C=    0.0000
 XYZ=    0.6740    1.0470   11.5960 Q=    0.9278 A=    0.0000 R=    0.0000 C=    0.0000
 XYZ=    3.4810    0.8870   15.2620 Q=   -0.6284 A=    0.0000 R=    0.0000 C=    0.0000
 XYZ=    4.1630    0.3920   16.4420 Q=    0.1821 A=    0.0000 R=    0.0000 C=    0.0000
 XYZ=    3.4240    0.9650   17.6310 Q=    0.3166 A=    0.0000 R=    0.0000 C=    0.0000
 XYZ=    3.1360    2.1100   17.6120 Q=   -0.5694 A=    0.0000 R=    0.0000 C=    0.0000
 XYZ=    5.6880    0.7500   16.3890 Q=   -0.3175 A=    0.0000 R=    0.0000 C=    0.0000
 XYZ=    6.2640    0.1300   15.2360 Q=   -0.3082 A=    0.0000 R=    0.0000 C=    0.0000
 XYZ=    6.4200    0.2100   17.5690 Q=    0.9463 A=    0.0000 R=    0.0000 C=    0.0000
 XYZ=    3.1730    0.1290   18.6470 Q=   -0.5421 A=    0.0000 R=    0.0000 C=    0.0000
 XYZ=    2.5590    0.5160   19.9030 Q=    0.0236 A=    0.0000 R=    0.0000 C=    0.0000
 XYZ=    3.3500   -0.1220   21.0140 Q=    0.1847 A=    0.0000 R=    0.0000 C=    0.0000
 XYZ=    3.3660   -1.3390   21.1400 Q=   -0.4163 A=    0.0000 R=    0.0000 C=    0.0000
 XYZ=    1.1380   -0.0210   19.9830 Q=   -0.2907 A=    0.0000 R=    0.0000 C=    0.0000
 XYZ=    0.3930    0.3940   18.8240 Q=   -0.3415 A=    0.0000 R=    0.0000 C=    0.0000
 XYZ=    0.4860    0.5010   21.1670 Q=    0.7765 A=    0.0000 R=    0.0000 C=    0.0000
 XYZ=    4.0670    0.6880   21.7680 Q=   -0.6191 A=    0.0000 R=    0.0000 C=    0.0000
 XYZ=    4.8880    0.2050   22.8510 Q=    0.2833 A=    0.0000 R=    0.0000 C=    0.0000
 XYZ=    4.3500    0.7690   24.1740 Q=    0.1730 A=    0.0000 R=    0.0000 C=    0.0000
 XYZ=    4.1610    1.9810   24.2690 Q=   -0.2861 A=    0.0000 R=    0.0000 C=    0.0000
 XYZ=    6.3620    0.6140   22.6520 Q=   -1.1933 A=    0.0000 R=    0.0000 C=    0.0000
 XYZ=    7.1520    0.2970   23.8740 Q=    0.8585 A=    0.0000 R=    0.0000 C=    0.0000
 XYZ=    6.9530   -0.1210   21.4550 Q=    0.9590 A=    0.0000 R=    0.0000 C=    0.0000
 XYZ=    4.0650   -0.1200   25.1510 Q=   -0.4907 A=    0.0000 R=    0.0000 C=    0.0000
 XYZ=    3.7200    0.3130   26.5150 Q=   -0.3576 A=    0.0000 R=    0.0000 C=    0.0000
 XYZ=    4.9410    0.1400   27.4200 Q=    0.0549 A=    0.0000 R=    0.0000 C=    0.0000
 XYZ=    5.7140   -0.8090   27.2870 Q=   -0.0565 A=    0.0000 R=    0.0000 C=    0.0000
 XYZ=    2.4990   -0.4220   27.0620 Q=    1.1023 A=    0.0000 R=    0.0000 C=    0.0000
 XYZ=    5.2500    0.9550   28.2940 Q=    0.3115 A=    0.0000 R=    0.0000 C=    0.0000
 Pt Chg Charge=              0.9314 electrons
 Pt Chg Dipole moment (Debye):
    X=            -33.8607    Y=             -6.2796    Z=             47.6598  Tot=             58.8000
 Pt Chg Quadrupole moment (Debye-Ang):
   XX=            256.4835   YY=            -37.5674   ZZ=           2095.5258
   XY=            -46.5128   XZ=             79.0529   YZ=           -113.5487
 Pt Chg Traceless Quadrupole moment (Debye-Ang):
   XX=           -514.9971   YY=           -809.0481   ZZ=           1324.0452
   XY=            -46.5128   XZ=             79.0529   YZ=           -113.5487
 Pt Chg Octapole moment (Debye-Ang**2):
  XXX=           1372.1011  YYY=            -24.6898  ZZZ=          71473.4863  XYY=           -142.1357
  XXY=           -307.5869  XXZ=           4505.8578  XZZ=           8953.9497  YZZ=          -2861.5133
  YYZ=           -564.9295  XYZ=           -854.0123
 Pt Chg Hexadecapole moment (Debye-Ang**3):
 XXXX=          19702.2465 YYYY=           -155.4958 ZZZZ=        2200087.0262 XXXY=          -1145.2318
 XXXZ=          40105.2314 YYYX=           -174.3947 YYYZ=           -557.8063 ZZZX=         308658.3570
 ZZZY=         -67597.8407 XXYY=           -503.3066 XXZZ=         110131.6259 YYZZ=          -9337.7839
 XXYZ=          -3949.5754 YYXZ=          -2223.1329 ZZXY=         -15792.3927
 Leave Link  101 at Wed Jan  5 15:21:28 2022, MaxMem=   402653184 cpu:               6.8 elap:               1.1
 (Enter /work/01114/jfonner/frontera/gaussian/16rC.01/g16/l202.exe)
                          Input orientation:                          
 ---------------------------------------------------------------------
 Center     Atomic      Atomic             Coordinates (Angstroms)
 Number     Number       Type             X           Y           Z
 ---------------------------------------------------------------------
      1          6           0       -4.357000   -0.673000    2.588000
      2          8           0       -4.212000   -1.870000    2.492000
      3          7           0       -3.381000    0.125000    2.953000
      4          6           0       -2.062000   -0.390000    3.274000
      5          6           0       -1.636000    0.175000    4.600000
      6          8           0       -1.744000    1.356000    4.862000
      7          7           0       -1.095000   -0.700000    5.415000
      8          6           0       -0.572000   -0.311000    6.669000
      9          6           0       -0.993000   -0.045000    2.197000
     10          6           0        0.390000   -0.488000    2.640000
     11          1           0       -5.305527   -0.201183    2.437718
     12          1           0       -1.269550   -0.488199    1.263194
     13          1           0        0.423413   -0.693797    6.755711
     14          1           0       -1.159026   -0.732204    7.458232
 ---------------------------------------------------------------------
                    Distance matrix (angstroms):
                    1          2          3          4          5
     1  C    0.000000
     2  O    1.209566   0.000000
     3  N    1.312480   2.209775   0.000000
     4  C    2.411993   2.724780   1.451905   0.000000
     5  C    3.488709   3.906593   2.400028   1.502989   0.000000
     6  O    4.014435   4.702659   2.799895   2.381467   1.214524
     7  N    4.316631   4.430408   3.459460   2.369614   1.312452
     8  C    5.577798   5.755642   4.678593   3.708418   2.376774
     9  C    3.444381   3.712090   2.510574   1.556186   2.497250
    10  C    4.750888   4.807310   3.833299   2.534534   2.895832
    11  H    1.070000   1.995921   2.018840   3.354920   4.275793
    12  H    3.364760   3.475248   2.773027   2.163553   3.421753
    13  H    6.342129   6.407007   5.441011   4.288576   3.105331
    14  H    5.826637   5.939587   5.095987   4.294213   3.036448
                    6          7          8          9         10
     6  O    0.000000
     7  N    2.225791   0.000000
     8  C    2.723550   1.413282   0.000000
     9  C    3.103067   3.285567   4.499642   0.000000
    10  C    3.590484   3.154488   4.146036   1.518284   0.000000
    11  H    4.581096   5.180885   6.349968   4.322063   5.706331
    12  H    4.071557   4.160868   5.453505   1.070000   2.156317
    13  H    3.533481   2.025617   1.070000   4.817573   4.120988
    14  H    3.382781   2.044489   1.070000   5.308519   5.066999
                   11         12         13         14
    11  H    0.000000
    12  H    4.213193   0.000000
    13  H    7.190862   5.751186   0.000000
    14  H    6.533071   6.200827   1.731799   0.000000
 Symmetry turned off by external request.
 Stoichiometry    C6H4N2O2(2+)
 Framework group  C1[X(C6H4N2O2)]
 Deg. of freedom    36
 Full point group                 C1      NOp   1
 Rotational constants (GHZ):           2.0618197           0.9493084           0.8114392
 Leave Link  202 at Wed Jan  5 15:21:29 2022, MaxMem=   402653184 cpu:               3.3 elap:               0.5
 (Enter /work/01114/jfonner/frontera/gaussian/16rC.01/g16/l301.exe)
 Standard basis: VSTO-6G (5D, 7F)
 Ernie: Thresh=  0.10000D-02 Tol=  0.10000D-05 Strict=F.
  NNHCO=     0 NNPyr=     0 NCTC=     0               EPep=         0.000000000
    EC=       200.027093886  ECS=         3.259933835   EG=         0.280028821
   EHC=         0.001177277  EAt=       -61.016910202  AtH=         2.516083127
 EPDDG=         0.000000000  ECC=       203.568233820 EAtT=        63.532993329
    44 basis functions,   264 primitive gaussians,    44 cartesian basis functions
    24 alpha electrons       24 beta electrons
       nuclear repulsion energy       267.1012271487 Hartrees.
 IExCor=    0 DFT=F Ex=HF Corr=None ExCW=0 ScaHFX=  1.000000
 ScaDFX=  1.000000  1.000000  1.000000  1.000000 ScalE2=  1.000000  1.000000
 IRadAn=      5 IRanWt=     -1 IRanGd=            0 ICorTp=0 IEmpDi=  4
 Integral buffers will be    131072 words long.
 Regular integral format.
 Two-electron integral symmetry is turned off.
 Background charge distribution read from rwf.
 PtFMM for NChg=        70 BoxLen=    40.00 Levels= 1 LMax=20 SMax=    51.8 ICnFMM=     1:
 Self energy of the charges =        -3.1283224548 a.u.
 MM   energy of the charges =         0.0000000000 a.u.
 Nuclei-charges interaction =         7.1305914093 a.u.
 Nuclear repulsion after external point charges =      271.1034961032 Hartrees.
 Leave Link  301 at Wed Jan  5 15:21:30 2022, MaxMem=   402653184 cpu:               4.6 elap:               0.8
 (Enter /work/01114/jfonner/frontera/gaussian/16rC.01/g16/l302.exe)
 Do NDO integrals.
 NPDir=0 NMtPBC=     1 NCelOv=     1 NCel=       1 NClECP=     1 NCelD=      1
         NCelK=      1 NCelE2=     1 NClLst=     1 CellRange=     0.0.
 One-electron integrals computed using PRISM.
 NBasis=    44 RedAO= F EigKep=  0.00D+00  NBF=    44
 NBsUse=    44 1.00D-04 EigRej=  0.00D+00 NBFU=    44
 Leave Link  302 at Wed Jan  5 15:21:34 2022, MaxMem=   402653184 cpu:              24.2 elap:               4.2
 (Enter /work/01114/jfonner/frontera/gaussian/16rC.01/g16/l303.exe)
 DipDrv:  MaxL=1.
 Leave Link  303 at Wed Jan  5 15:21:34 2022, MaxMem=   402653184 cpu:               3.3 elap:               0.5
 (Enter /work/01114/jfonner/frontera/gaussian/16rC.01/g16/l401.exe)
 Simple Huckel Guess.
 JPrj=0 DoOrth=F DoCkMO=F.
 Leave Link  401 at Wed Jan  5 15:21:36 2022, MaxMem=   402653184 cpu:               9.3 elap:               1.6
 (Enter /work/01114/jfonner/frontera/gaussian/16rC.01/g16/l502.exe)
 Keep J ints in memory in canonical form, NReq=865179.
 FoFCou: FMM=F IPFlag=           0 FMFlag=           0 FMFlg1=           0
         NFxFlg=           0 DoJE=F BraDBF=F KetDBF=F FulRan=T
         wScrn=  0.000000 ICntrl=       600 IOpCl=  2 I1Cent=           0 NGrid=           0
         NMat0=    1 NMatS0=    104 NMatT0=    0 NMatD0=    1 NMtDS0=    0 NMtDT0=    0
 Symmetry not used in FoFCou.
 Two-electron integral symmetry not used.
 Closed shell SCF:
 Using DIIS extrapolation, IDIIS=  1040.
 Overlap will be assumed to be unity.
 NGot=   402653184 LenX=   402581398 LenY=   402579021
 Requested convergence on RMS density matrix=1.00D-08 within 128 cycles.
 Requested convergence on MAX density matrix=1.00D-06.
 Requested convergence on             energy=1.00D-06.
 No special actions if energy rises.

 Cycle   1  Pass 1  IDiag  1:
 E=-0.591696911474628    
 DIIS: error= 7.88D-02 at cycle   1 NSaved=   1.
 NSaved= 1 IEnMin= 1 EnMin=-0.591696911474628     IErMin= 1 ErrMin= 7.88D-02
 ErrMax= 7.88D-02  0.00D+00 EMaxC= 1.00D-01 BMatC= 2.38D-01 BMatP= 2.38D-01
 IDIUse=3 WtCom= 2.12D-01 WtEn= 7.88D-01
 Coeff-Com:  0.100D+01
 Coeff-En:   0.100D+01
 Coeff:      0.100D+01
 GapD=    2.000 DampG=2.000 DampE=0.500 DampFc=1.0000 IDamp=-1.
 RMSDP=4.00D-02 MaxDP=4.23D-01              OVMax= 0.00D+00

 Cycle   2  Pass 1  IDiag  1:
 E= -1.24338290313625     Delta-E=       -0.651685991662 Rises=F Damp=F
 DIIS: error= 3.54D-02 at cycle   2 NSaved=   2.
 NSaved= 2 IEnMin= 2 EnMin= -1.24338290313625     IErMin= 2 ErrMin= 3.54D-02
 ErrMax= 3.54D-02  0.00D+00 EMaxC= 1.00D-01 BMatC= 9.78D-02 BMatP= 2.38D-01
 IDIUse=3 WtCom= 6.46D-01 WtEn= 3.54D-01
 Coeff-Com:  0.282D+00 0.718D+00
 Coeff-En:   0.000D+00 0.100D+01
 Coeff:      0.182D+00 0.818D+00
 RMSDP=3.49D-02 MaxDP=5.88D-01 DE=-6.52D-01 OVMax= 0.00D+00

 Cycle   3  Pass 1  IDiag  1:
 E= -1.38849874244187     Delta-E=       -0.145115839306 Rises=F Damp=F
 DIIS: error= 2.62D-02 at cycle   3 NSaved=   3.
 NSaved= 3 IEnMin= 3 EnMin= -1.38849874244187     IErMin= 3 ErrMin= 2.62D-02
 ErrMax= 2.62D-02  0.00D+00 EMaxC= 1.00D-01 BMatC= 5.16D-02 BMatP= 9.78D-02
 IDIUse=3 WtCom= 7.38D-01 WtEn= 2.62D-01
 Coeff-Com: -0.739D-01 0.396D+00 0.677D+00
 Coeff-En:   0.000D+00 0.369D+00 0.631D+00
 Coeff:     -0.545D-01 0.389D+00 0.665D+00
 RMSDP=3.29D-02 MaxDP=5.99D-01 DE=-1.45D-01 OVMax= 0.00D+00

 Cycle   4  Pass 1  IDiag  1:
 E= -1.60398709795822     Delta-E=       -0.215488355516 Rises=F Damp=F
 DIIS: error= 1.42D-02 at cycle   4 NSaved=   4.
 NSaved= 4 IEnMin= 4 EnMin= -1.60398709795822     IErMin= 4 ErrMin= 1.42D-02
 ErrMax= 1.42D-02  0.00D+00 EMaxC= 1.00D-01 BMatC= 1.95D-02 BMatP= 5.16D-02
 IDIUse=3 WtCom= 8.58D-01 WtEn= 1.42D-01
 Coeff-Com: -0.518D-01-0.109D+00 0.365D+00 0.796D+00
 Coeff-En:   0.000D+00 0.000D+00 0.147D+00 0.853D+00
 Coeff:     -0.444D-01-0.939D-01 0.334D+00 0.804D+00
 RMSDP=8.42D-03 MaxDP=6.56D-02 DE=-2.15D-01 OVMax= 0.00D+00

 Cycle   5  Pass 1  IDiag  3:
 E= -1.69068054640411     Delta-E=       -0.086693448446 Rises=F Damp=F
 DIIS: error= 6.00D-03 at cycle   5 NSaved=   5.
 NSaved= 5 IEnMin= 5 EnMin= -1.69068054640411     IErMin= 5 ErrMin= 6.00D-03
 ErrMax= 6.00D-03  0.00D+00 EMaxC= 1.00D-01 BMatC= 4.30D-03 BMatP= 1.95D-02
 IDIUse=3 WtCom= 9.40D-01 WtEn= 6.00D-02
 Coeff-Com:  0.215D-02-0.654D-02 0.777D-01-0.453D+00 0.138D+01
 Coeff-En:   0.000D+00 0.000D+00 0.000D+00 0.000D+00 0.100D+01
 Coeff:      0.202D-02-0.615D-02 0.730D-01-0.426D+00 0.136D+01
 Gap=     0.110 Goal=   None    Shift=    0.000
 RMSDP=6.37D-03 MaxDP=5.25D-02 DE=-8.67D-02 OVMax= 1.33D-01

 Cycle   6  Pass 1  IDiag  3:
 E= -1.71741155599909     Delta-E=       -0.026731009595 Rises=F Damp=F
 DIIS: error= 1.95D-03 at cycle   6 NSaved=   6.
 NSaved= 6 IEnMin= 6 EnMin= -1.71741155599909     IErMin= 6 ErrMin= 1.95D-03
 ErrMax= 1.95D-03  0.00D+00 EMaxC= 1.00D-01 BMatC= 2.70D-04 BMatP= 4.30D-03
 IDIUse=3 WtCom= 9.80D-01 WtEn= 1.95D-02
 Coeff-Com:  0.111D-02 0.993D-02-0.297D-01 0.146D-01-0.295D+00 0.130D+01
 Coeff-En:   0.000D+00 0.000D+00 0.000D+00 0.000D+00 0.000D+00 0.100D+01
 Coeff:      0.108D-02 0.973D-02-0.291D-01 0.143D-01-0.290D+00 0.129D+01
 Gap=     0.144 Goal=   None    Shift=    0.000
 RMSDP=2.19D-03 MaxDP=1.58D-02 DE=-2.67D-02 OVMax= 2.75D-02

 Cycle   7  Pass 1  IDiag  3:
 E= -1.72002120125086     Delta-E=       -0.002609645252 Rises=F Damp=F
 DIIS: error= 1.29D-03 at cycle   7 NSaved=   7.
 NSaved= 7 IEnMin= 7 EnMin= -1.72002120125086     IErMin= 7 ErrMin= 1.29D-03
 ErrMax= 1.29D-03  0.00D+00 EMaxC= 1.00D-01 BMatC= 8.63D-05 BMatP= 2.70D-04
 IDIUse=3 WtCom= 9.87D-01 WtEn= 1.29D-02
 Coeff-Com:  0.726D-03-0.105D-01-0.892D-02 0.291D-01 0.143D+00-0.741D+00
 Coeff-Com:  0.159D+01
 Coeff-En:   0.000D+00 0.000D+00 0.000D+00 0.000D+00 0.000D+00 0.000D+00
 Coeff-En:   0.100D+01
 Coeff:      0.717D-03-0.104D-01-0.881D-02 0.287D-01 0.142D+00-0.732D+00
 Coeff:      0.158D+01
 Gap=     0.142 Goal=   None    Shift=    0.000
 RMSDP=1.28D-03 MaxDP=9.31D-03 DE=-2.61D-03 OVMax= 2.05D-02

 Cycle   8  Pass 1  IDiag  3:
 E= -1.72096870634232     Delta-E=       -0.000947505091 Rises=F Damp=F
 DIIS: error= 6.48D-04 at cycle   8 NSaved=   8.
 NSaved= 8 IEnMin= 8 EnMin= -1.72096870634232     IErMin= 8 ErrMin= 6.48D-04
 ErrMax= 6.48D-04  0.00D+00 EMaxC= 1.00D-01 BMatC= 1.92D-05 BMatP= 8.63D-05
 IDIUse=3 WtCom= 9.94D-01 WtEn= 6.48D-03
 Coeff-Com: -0.394D-03 0.663D-02 0.361D-02-0.177D-01-0.197D-01 0.520D-01
 Coeff-Com: -0.613D+00 0.159D+01
 Coeff-En:   0.000D+00 0.000D+00 0.000D+00 0.000D+00 0.000D+00 0.000D+00
 Coeff-En:   0.000D+00 0.100D+01
 Coeff:     -0.391D-03 0.659D-02 0.359D-02-0.176D-01-0.195D-01 0.517D-01
 Coeff:     -0.610D+00 0.159D+01
 Gap=     0.144 Goal=   None    Shift=    0.000
 RMSDP=1.06D-03 MaxDP=8.47D-03 DE=-9.48D-04 OVMax= 1.89D-02

 Cycle   9  Pass 1  IDiag  3:
 E= -1.72138913560252     Delta-E=       -0.000420429260 Rises=F Damp=F
 DIIS: error= 4.36D-04 at cycle   9 NSaved=   9.
 NSaved= 9 IEnMin= 9 EnMin= -1.72138913560252     IErMin= 9 ErrMin= 4.36D-04
 ErrMax= 4.36D-04  0.00D+00 EMaxC= 1.00D-01 BMatC= 6.65D-06 BMatP= 1.92D-05
 IDIUse=3 WtCom= 9.96D-01 WtEn= 4.36D-03
 Coeff-Com: -0.144D-03-0.349D-02 0.134D-03 0.108D-01-0.151D-01 0.872D-01
 Coeff-Com:  0.261D+00-0.150D+01 0.216D+01
 Coeff-En:   0.000D+00 0.000D+00 0.000D+00 0.000D+00 0.000D+00 0.000D+00
 Coeff-En:   0.000D+00 0.000D+00 0.100D+01
 Coeff:     -0.143D-03-0.348D-02 0.134D-03 0.108D-01-0.151D-01 0.869D-01
 Coeff:      0.260D+00-0.149D+01 0.215D+01
 Gap=     0.144 Goal=   None    Shift=    0.000
 RMSDP=9.70D-04 MaxDP=8.63D-03 DE=-4.20D-04 OVMax= 1.64D-02

 Cycle  10  Pass 1  IDiag  3:
 E= -1.72161488705376     Delta-E=       -0.000225751451 Rises=F Damp=F
 DIIS: error= 2.45D-04 at cycle  10 NSaved=  10.
 NSaved=10 IEnMin=10 EnMin= -1.72161488705376     IErMin=10 ErrMin= 2.45D-04
 ErrMax= 2.45D-04  0.00D+00 EMaxC= 1.00D-01 BMatC= 2.53D-06 BMatP= 6.65D-06
 IDIUse=3 WtCom= 9.98D-01 WtEn= 2.45D-03
 Coeff-Com:  0.865D-04-0.395D-03 0.765D-03 0.248D-03 0.110D-01-0.652D-01
 Coeff-Com: -0.136D+00 0.908D+00-0.178D+01 0.206D+01
 Coeff-En:   0.000D+00 0.000D+00 0.000D+00 0.000D+00 0.000D+00 0.000D+00
 Coeff-En:   0.000D+00 0.000D+00 0.000D+00 0.100D+01
 Coeff:      0.863D-04-0.394D-03 0.763D-03 0.247D-03 0.109D-01-0.650D-01
 Coeff:     -0.135D+00 0.906D+00-0.177D+01 0.206D+01
 Gap=     0.145 Goal=   None    Shift=    0.000
 RMSDP=7.41D-04 MaxDP=6.35D-03 DE=-2.26D-04 OVMax= 1.55D-02

 Cycle  11  Pass 1  IDiag  3:
 E= -1.72172297795669     Delta-E=       -0.000108090903 Rises=F Damp=F
 DIIS: error= 1.12D-04 at cycle  11 NSaved=  11.
 NSaved=11 IEnMin=11 EnMin= -1.72172297795669     IErMin=11 ErrMin= 1.12D-04
 ErrMax= 1.12D-04  0.00D+00 EMaxC= 1.00D-01 BMatC= 1.11D-06 BMatP= 2.53D-06
 IDIUse=3 WtCom= 9.99D-01 WtEn= 1.12D-03
 Coeff-Com: -0.135D-04 0.330D-03-0.314D-03-0.143D-02 0.157D-02 0.127D-01
 Coeff-Com:  0.360D-01-0.267D+00 0.646D+00-0.141D+01 0.198D+01
 Coeff-En:   0.000D+00 0.000D+00 0.000D+00 0.000D+00 0.000D+00 0.000D+00
 Coeff-En:   0.000D+00 0.000D+00 0.000D+00 0.000D+00 0.100D+01
 Coeff:     -0.135D-04 0.330D-03-0.314D-03-0.143D-02 0.157D-02 0.127D-01
 Coeff:      0.359D-01-0.267D+00 0.646D+00-0.141D+01 0.198D+01
 Gap=     0.146 Goal=   None    Shift=    0.000
 RMSDP=6.15D-04 MaxDP=4.86D-03 DE=-1.08D-04 OVMax= 1.55D-02

 Cycle  12  Pass 1  IDiag  3:
 E= -1.72178353547315     Delta-E=       -0.000060557516 Rises=F Damp=F
 DIIS: error= 9.09D-05 at cycle  12 NSaved=  12.
 NSaved=12 IEnMin=12 EnMin= -1.72178353547315     IErMin=12 ErrMin= 9.09D-05
 ErrMax= 9.09D-05  0.00D+00 EMaxC= 1.00D-01 BMatC= 6.36D-07 BMatP= 1.11D-06
 IDIUse=1 WtCom= 1.00D+00 WtEn= 0.00D+00
 Coeff-Com:  0.359D-04-0.264D-03-0.418D-03 0.239D-03-0.108D-02 0.200D-01
 Coeff-Com: -0.669D-01 0.995D-01-0.120D+00 0.479D+00-0.140D+01 0.199D+01
 Coeff:      0.359D-04-0.264D-03-0.418D-03 0.239D-03-0.108D-02 0.200D-01
 Coeff:     -0.669D-01 0.995D-01-0.120D+00 0.479D+00-0.140D+01 0.199D+01
 Gap=     0.146 Goal=   None    Shift=    0.000
 RMSDP=4.74D-04 MaxDP=4.40D-03 DE=-6.06D-05 OVMax= 1.35D-02

 Cycle  13  Pass 1  IDiag  3:
 E= -1.72181858960266     Delta-E=       -0.000035054130 Rises=F Damp=F
 DIIS: error= 7.02D-05 at cycle  13 NSaved=  13.
 NSaved=13 IEnMin=13 EnMin= -1.72181858960266     IErMin=13 ErrMin= 7.02D-05
 ErrMax= 7.02D-05  0.00D+00 EMaxC= 1.00D-01 BMatC= 3.90D-07 BMatP= 6.36D-07
 IDIUse=1 WtCom= 1.00D+00 WtEn= 0.00D+00
 Coeff-Com:  0.960D-04-0.427D-04-0.207D-03-0.175D-03-0.749D-03 0.903D-02
 Coeff-Com: -0.205D-01 0.937D-02 0.254D-02-0.118D-01 0.216D+00-0.106D+01
 Coeff-Com:  0.185D+01
 Coeff:      0.960D-04-0.427D-04-0.207D-03-0.175D-03-0.749D-03 0.903D-02
 Coeff:     -0.205D-01 0.937D-02 0.254D-02-0.118D-01 0.216D+00-0.106D+01
 Coeff:      0.185D+01
 Gap=     0.147 Goal=   None    Shift=    0.000
 RMSDP=3.87D-04 MaxDP=3.78D-03 DE=-3.51D-05 OVMax= 1.15D-02

 Cycle  14  Pass 1  IDiag  3:
 E= -1.72184065955145     Delta-E=       -0.000022069949 Rises=F Damp=F
 DIIS: error= 5.42D-05 at cycle  14 NSaved=  14.
 NSaved=14 IEnMin=14 EnMin= -1.72184065955145     IErMin=14 ErrMin= 5.42D-05
 ErrMax= 5.42D-05  0.00D+00 EMaxC= 1.00D-01 BMatC= 2.36D-07 BMatP= 3.90D-07
 IDIUse=1 WtCom= 1.00D+00 WtEn= 0.00D+00
 Coeff-Com:  0.140D-04-0.867D-05-0.749D-04-0.556D-03 0.108D-02 0.866D-03
 Coeff-Com: -0.713D-02 0.260D-01-0.667D-01 0.768D-01 0.822D-01-0.997D-01
 Coeff-Com: -0.113D+01 0.211D+01
 Coeff:      0.140D-04-0.867D-05-0.749D-04-0.556D-03 0.108D-02 0.866D-03
 Coeff:     -0.713D-02 0.260D-01-0.667D-01 0.768D-01 0.822D-01-0.997D-01
 Coeff:     -0.113D+01 0.211D+01
 Gap=     0.147 Goal=   None    Shift=    0.000
 RMSDP=4.21D-04 MaxDP=4.17D-03 DE=-2.21D-05 OVMax= 1.26D-02

 Cycle  15  Pass 1  IDiag  3:
 E= -1.72185773443096     Delta-E=       -0.000017074880 Rises=F Damp=F
 DIIS: error= 3.64D-05 at cycle  15 NSaved=  15.
 NSaved=15 IEnMin=15 EnMin= -1.72185773443096     IErMin=15 ErrMin= 3.64D-05
 ErrMax= 3.64D-05  0.00D+00 EMaxC= 1.00D-01 BMatC= 1.34D-07 BMatP= 2.36D-07
 IDIUse=1 WtCom= 1.00D+00 WtEn= 0.00D+00
 Coeff-Com:  0.490D-04-0.172D-05-0.340D-04-0.511D-03-0.158D-03 0.617D-02
 Coeff-Com: -0.172D-01 0.280D-01-0.411D-01 0.534D-01-0.150D-01 0.870D-01
 Coeff-Com: -0.316D+00-0.313D+00 0.153D+01
 Coeff:      0.490D-04-0.172D-05-0.340D-04-0.511D-03-0.158D-03 0.617D-02
 Coeff:     -0.172D-01 0.280D-01-0.411D-01 0.534D-01-0.150D-01 0.870D-01
 Coeff:     -0.316D+00-0.313D+00 0.153D+01
 Gap=     0.147 Goal=   None    Shift=    0.000
 RMSDP=2.80D-04 MaxDP=2.76D-03 DE=-1.71D-05 OVMax= 8.33D-03

 Cycle  16  Pass 1  IDiag  3:
 E= -1.72186512012524     Delta-E=       -0.000007385694 Rises=F Damp=F
 DIIS: error= 2.73D-05 at cycle  16 NSaved=  16.
 NSaved=16 IEnMin=16 EnMin= -1.72186512012524     IErMin=16 ErrMin= 2.73D-05
 ErrMax= 2.73D-05  0.00D+00 EMaxC= 1.00D-01 BMatC= 5.93D-08 BMatP= 1.34D-07
 IDIUse=1 WtCom= 1.00D+00 WtEn= 0.00D+00
 Coeff-Com:  0.423D-04-0.132D-03 0.354D-04-0.264D-03 0.158D-02-0.377D-02
 Coeff-Com:  0.268D-02 0.732D-02-0.164D-01-0.530D-02 0.332D-01-0.397D-03
 Coeff-Com: -0.694D-02-0.197D+00-0.453D+00 0.164D+01
 Coeff:      0.423D-04-0.132D-03 0.354D-04-0.264D-03 0.158D-02-0.377D-02
 Coeff:      0.268D-02 0.732D-02-0.164D-01-0.530D-02 0.332D-01-0.397D-03
 Coeff:     -0.694D-02-0.197D+00-0.453D+00 0.164D+01
 Gap=     0.147 Goal=   None    Shift=    0.000
 RMSDP=2.57D-04 MaxDP=2.51D-03 DE=-7.39D-06 OVMax= 7.56D-03

 Cycle  17  Pass 1  IDiag  3:
 E= -1.72186877484177     Delta-E=       -0.000003654717 Rises=F Damp=F
 DIIS: error= 1.94D-05 at cycle  17 NSaved=  17.
 NSaved=17 IEnMin=17 EnMin= -1.72186877484177     IErMin=17 ErrMin= 1.94D-05
 ErrMax= 1.94D-05  0.00D+00 EMaxC= 1.00D-01 BMatC= 3.28D-08 BMatP= 5.93D-08
 IDIUse=1 WtCom= 1.00D+00 WtEn= 0.00D+00
 Coeff-Com:  0.273D-04-0.145D-03 0.117D-03-0.710D-04 0.786D-03-0.143D-02
 Coeff-Com:  0.349D-02-0.660D-02 0.464D-02 0.280D-02-0.360D-02 0.109D-01
 Coeff-Com: -0.366D-01 0.191D+00-0.436D+00 0.236D-01 0.125D+01
 Coeff:      0.273D-04-0.145D-03 0.117D-03-0.710D-04 0.786D-03-0.143D-02
 Coeff:      0.349D-02-0.660D-02 0.464D-02 0.280D-02-0.360D-02 0.109D-01
 Coeff:     -0.366D-01 0.191D+00-0.436D+00 0.236D-01 0.125D+01
 Gap=     0.147 Goal=   None    Shift=    0.000
 RMSDP=8.35D-05 MaxDP=7.44D-04 DE=-3.65D-06 OVMax= 2.28D-03

 Cycle  18  Pass 1  IDiag  3:
 E= -1.72186956601172     Delta-E=       -0.000000791170 Rises=F Damp=F
 DIIS: error= 1.14D-05 at cycle  18 NSaved=  18.
 NSaved=18 IEnMin=18 EnMin= -1.72186956601172     IErMin=18 ErrMin= 1.14D-05
 ErrMax= 1.14D-05  0.00D+00 EMaxC= 1.00D-01 BMatC= 1.50D-08 BMatP= 3.28D-08
 IDIUse=1 WtCom= 1.00D+00 WtEn= 0.00D+00
 Coeff-Com: -0.218D-04 0.743D-04 0.169D-03-0.169D-03-0.414D-03-0.164D-02
 Coeff-Com: -0.788D-03 0.171D-01-0.235D-01 0.119D-01-0.169D-01 0.127D-01
 Coeff-Com:  0.320D-01-0.443D-01 0.162D+00-0.346D+00-0.410D+00 0.161D+01
 Coeff:     -0.218D-04 0.743D-04 0.169D-03-0.169D-03-0.414D-03-0.164D-02
 Coeff:     -0.788D-03 0.171D-01-0.235D-01 0.119D-01-0.169D-01 0.127D-01
 Coeff:      0.320D-01-0.443D-01 0.162D+00-0.346D+00-0.410D+00 0.161D+01
 Gap=     0.147 Goal=   None    Shift=    0.000
 RMSDP=6.48D-05 MaxDP=5.46D-04 DE=-7.91D-07 OVMax= 1.69D-03

 Cycle  19  Pass 1  IDiag  3:
 E= -1.72186998953714     Delta-E=       -0.000000423525 Rises=F Damp=F
 DIIS: error= 8.38D-06 at cycle  19 NSaved=  19.
 NSaved=19 IEnMin=19 EnMin= -1.72186998953714     IErMin=19 ErrMin= 8.38D-06
 ErrMax= 8.38D-06  0.00D+00 EMaxC= 1.00D-01 BMatC= 8.24D-09 BMatP= 1.50D-08
 IDIUse=1 WtCom= 1.00D+00 WtEn= 0.00D+00
 Coeff-Com: -0.836D-05 0.232D-04 0.142D-03-0.325D-03 0.423D-03-0.118D-02
 Coeff-Com: -0.154D-02 0.113D-01-0.169D-01 0.189D-01-0.182D-01 0.209D-01
 Coeff-Com: -0.299D-01 0.666D-01-0.806D-01 0.733D-01 0.700D-01-0.966D+00
 Coeff-Com:  0.185D+01
 Coeff:     -0.836D-05 0.232D-04 0.142D-03-0.325D-03 0.423D-03-0.118D-02
 Coeff:     -0.154D-02 0.113D-01-0.169D-01 0.189D-01-0.182D-01 0.209D-01
 Coeff:     -0.299D-01 0.666D-01-0.806D-01 0.733D-01 0.700D-01-0.966D+00
 Coeff:      0.185D+01
 Gap=     0.147 Goal=   None    Shift=    0.000
 RMSDP=3.34D-05 MaxDP=2.29D-04 DE=-4.24D-07 OVMax= 5.62D-04

 Cycle  20  Pass 1  IDiag  3:
 E= -1.72187019607202     Delta-E=       -0.000000206535 Rises=F Damp=F
 DIIS: error= 6.30D-06 at cycle  20 NSaved=  20.
 NSaved=20 IEnMin=20 EnMin= -1.72187019607202     IErMin=20 ErrMin= 6.30D-06
 ErrMax= 6.30D-06  0.00D+00 EMaxC= 1.00D-01 BMatC= 4.73D-09 BMatP= 8.24D-09
 IDIUse=1 WtCom= 1.00D+00 WtEn= 0.00D+00
 Coeff-Com: -0.866D-05 0.385D-05 0.119D-03-0.713D-04 0.152D-03-0.170D-02
 Coeff-Com:  0.249D-02 0.158D-02-0.571D-02 0.501D-02-0.265D-02-0.687D-02
 Coeff-Com: -0.718D-02 0.101D-01 0.413D-02-0.226D-01 0.123D+00 0.101D-01
 Coeff-Com: -0.108D+01 0.197D+01
 Coeff:     -0.866D-05 0.385D-05 0.119D-03-0.713D-04 0.152D-03-0.170D-02
 Coeff:      0.249D-02 0.158D-02-0.571D-02 0.501D-02-0.265D-02-0.687D-02
 Coeff:     -0.718D-02 0.101D-01 0.413D-02-0.226D-01 0.123D+00 0.101D-01
 Coeff:     -0.108D+01 0.197D+01
 Gap=     0.147 Goal=   None    Shift=    0.000
 RMSDP=3.18D-05 MaxDP=2.01D-04 DE=-2.07D-07 OVMax= 5.90D-04

 Cycle  21  Pass 1  IDiag  3:
 E= -1.72187031669114     Delta-E=       -0.000000120619 Rises=F Damp=F
 DIIS: error= 4.17D-06 at cycle  21 NSaved=  20.
 NSaved=20 IEnMin=20 EnMin= -1.72187031669114     IErMin=20 ErrMin= 4.17D-06
 ErrMax= 4.17D-06  0.00D+00 EMaxC= 1.00D-01 BMatC= 1.81D-09 BMatP= 4.73D-09
 IDIUse=1 WtCom= 1.00D+00 WtEn= 0.00D+00
 Coeff-Com:  0.116D-05 0.655D-04-0.173D-03 0.327D-03-0.498D-03-0.509D-03
 Coeff-Com:  0.302D-02-0.244D-02 0.640D-03 0.606D-03 0.578D-02 0.175D-02
 Coeff-Com: -0.343D-02-0.137D-01 0.152D-01-0.602D-01 0.747D-01 0.154D+00
 Coeff-Com: -0.995D+00 0.182D+01
 Coeff:      0.116D-05 0.655D-04-0.173D-03 0.327D-03-0.498D-03-0.509D-03
 Coeff:      0.302D-02-0.244D-02 0.640D-03 0.606D-03 0.578D-02 0.175D-02
 Coeff:     -0.343D-02-0.137D-01 0.152D-01-0.602D-01 0.747D-01 0.154D+00
 Coeff:     -0.995D+00 0.182D+01
 Gap=     0.147 Goal=   None    Shift=    0.000
 RMSDP=2.07D-05 MaxDP=1.57D-04 DE=-1.21D-07 OVMax= 4.11D-04

 Cycle  22  Pass 1  IDiag  3:
 E= -1.72187036387413     Delta-E=       -0.000000047183 Rises=F Damp=F
 DIIS: error= 3.32D-06 at cycle  22 NSaved=  20.
 NSaved=20 IEnMin=20 EnMin= -1.72187036387413     IErMin=20 ErrMin= 3.32D-06
 ErrMax= 3.32D-06  0.00D+00 EMaxC= 1.00D-01 BMatC= 9.53D-10 BMatP= 1.81D-09
 IDIUse=1 WtCom= 1.00D+00 WtEn= 0.00D+00
 Coeff-Com:  0.318D-04-0.254D-04-0.241D-04-0.509D-03 0.902D-03 0.117D-02
 Coeff-Com: -0.405D-02 0.492D-02-0.657D-02 0.205D-02 0.349D-02-0.372D-02
 Coeff-Com: -0.256D-02 0.564D-02 0.229D-01-0.915D-01 0.239D+00-0.299D+00
 Coeff-Com: -0.459D+00 0.159D+01
 Coeff:      0.318D-04-0.254D-04-0.241D-04-0.509D-03 0.902D-03 0.117D-02
 Coeff:     -0.405D-02 0.492D-02-0.657D-02 0.205D-02 0.349D-02-0.372D-02
 Coeff:     -0.256D-02 0.564D-02 0.229D-01-0.915D-01 0.239D+00-0.299D+00
 Coeff:     -0.459D+00 0.159D+01
 Gap=     0.147 Goal=   None    Shift=    0.000
 RMSDP=1.50D-05 MaxDP=1.04D-04 DE=-4.72D-08 OVMax= 2.89D-04

 Cycle  23  Pass 1  IDiag  3:
 E= -1.72187037947128     Delta-E=       -0.000000015597 Rises=F Damp=F
 DIIS: error= 1.55D-06 at cycle  23 NSaved=  20.
 NSaved=20 IEnMin=20 EnMin= -1.72187037947128     IErMin=20 ErrMin= 1.55D-06
 ErrMax= 1.55D-06  0.00D+00 EMaxC= 1.00D-01 BMatC= 2.07D-10 BMatP= 9.53D-10
 IDIUse=1 WtCom= 1.00D+00 WtEn= 0.00D+00
 Coeff-Com: -0.494D-05-0.756D-04 0.231D-03-0.239D-03-0.997D-04 0.126D-02
 Coeff-Com: -0.197D-02 0.127D-02 0.219D-02-0.521D-02 0.542D-02 0.452D-02
 Coeff-Com: -0.527D-02-0.142D-01 0.506D-01-0.191D+00 0.407D+00-0.260D+00
 Coeff-Com: -0.751D+00 0.176D+01
 Coeff:     -0.494D-05-0.756D-04 0.231D-03-0.239D-03-0.997D-04 0.126D-02
 Coeff:     -0.197D-02 0.127D-02 0.219D-02-0.521D-02 0.542D-02 0.452D-02
 Coeff:     -0.527D-02-0.142D-01 0.506D-01-0.191D+00 0.407D+00-0.260D+00
 Coeff:     -0.751D+00 0.176D+01
 Gap=     0.147 Goal=   None    Shift=    0.000
 RMSDP=6.32D-06 MaxDP=4.63D-05 DE=-1.56D-08 OVMax= 1.35D-04

 Cycle  24  Pass 1  IDiag  3:
 E= -1.72187038299631     Delta-E=       -0.000000003525 Rises=F Damp=F
 DIIS: error= 7.13D-07 at cycle  24 NSaved=  20.
 NSaved=20 IEnMin=20 EnMin= -1.72187038299631     IErMin=20 ErrMin= 7.13D-07
 ErrMax= 7.13D-07  0.00D+00 EMaxC= 1.00D-01 BMatC= 4.02D-11 BMatP= 2.07D-10
 IDIUse=1 WtCom= 1.00D+00 WtEn= 0.00D+00
 Coeff-Com:  0.245D-04-0.406D-04 0.239D-03-0.494D-03-0.403D-03 0.160D-02
 Coeff-Com: -0.139D-02-0.600D-04 0.105D-02-0.743D-03-0.470D-02 0.707D-02
 Coeff-Com:  0.535D-02-0.357D-01 0.115D+00-0.213D+00 0.255D+00 0.106D+00
 Coeff-Com: -0.101D+01 0.178D+01
 Coeff:      0.245D-04-0.406D-04 0.239D-03-0.494D-03-0.403D-03 0.160D-02
 Coeff:     -0.139D-02-0.600D-04 0.105D-02-0.743D-03-0.470D-02 0.707D-02
 Coeff:      0.535D-02-0.357D-01 0.115D+00-0.213D+00 0.255D+00 0.106D+00
 Coeff:     -0.101D+01 0.178D+01
 Gap=     0.147 Goal=   None    Shift=    0.000
 RMSDP=1.53D-06 MaxDP=1.10D-05 DE=-3.53D-09 OVMax= 2.79D-05

 Cycle  25  Pass 1  IDiag  3:
 E= -1.72187038356719     Delta-E=       -0.000000000571 Rises=F Damp=F
 DIIS: error= 2.80D-07 at cycle  25 NSaved=  20.
 NSaved=20 IEnMin=20 EnMin= -1.72187038356719     IErMin=20 ErrMin= 2.80D-07
 ErrMax= 2.80D-07  0.00D+00 EMaxC= 1.00D-01 BMatC= 7.47D-12 BMatP= 4.02D-11
 IDIUse=1 WtCom= 1.00D+00 WtEn= 0.00D+00
 Coeff-Com: -0.139D-04-0.850D-04 0.313D-03 0.335D-04-0.756D-03 0.420D-03
 Coeff-Com:  0.830D-03-0.147D-02 0.383D-03 0.139D-02-0.292D-02-0.132D-02
 Coeff-Com:  0.133D-01-0.433D-01 0.795D-01-0.951D-01 0.524D-01 0.187D+00
 Coeff-Com: -0.837D+00 0.165D+01
 Coeff:     -0.139D-04-0.850D-04 0.313D-03 0.335D-04-0.756D-03 0.420D-03
 Coeff:      0.830D-03-0.147D-02 0.383D-03 0.139D-02-0.292D-02-0.132D-02
 Coeff:      0.133D-01-0.433D-01 0.795D-01-0.951D-01 0.524D-01 0.187D+00
 Coeff:     -0.837D+00 0.165D+01
 Gap=     0.147 Goal=   None    Shift=    0.000
 RMSDP=7.23D-07 MaxDP=6.90D-06 DE=-5.71D-10 OVMax= 1.17D-05

 Cycle  26  Pass 1  IDiag  3:
 E= -1.72187038372306     Delta-E=       -0.000000000156 Rises=F Damp=F
 DIIS: error= 1.46D-07 at cycle  26 NSaved=  20.
 NSaved=20 IEnMin=20 EnMin= -1.72187038372306     IErMin=20 ErrMin= 1.46D-07
 ErrMax= 1.46D-07  0.00D+00 EMaxC= 1.00D-01 BMatC= 2.31D-12 BMatP= 7.47D-12
 IDIUse=1 WtCom= 1.00D+00 WtEn= 0.00D+00
 Coeff-Com:  0.149D-03-0.416D-03 0.490D-04 0.827D-03-0.909D-03-0.168D-04
 Coeff-Com:  0.106D-02-0.471D-03-0.120D-02 0.137D-02 0.322D-02-0.120D-01
 Coeff-Com:  0.232D-01-0.419D-01 0.532D-01-0.559D-01-0.239D-01 0.431D+00
 Coeff-Com: -0.145D+01 0.207D+01
 Coeff:      0.149D-03-0.416D-03 0.490D-04 0.827D-03-0.909D-03-0.168D-04
 Coeff:      0.106D-02-0.471D-03-0.120D-02 0.137D-02 0.322D-02-0.120D-01
 Coeff:      0.232D-01-0.419D-01 0.532D-01-0.559D-01-0.239D-01 0.431D+00
 Coeff:     -0.145D+01 0.207D+01
 Gap=     0.147 Goal=   None    Shift=    0.000
 RMSDP=7.89D-07 MaxDP=7.25D-06 DE=-1.56D-10 OVMax= 1.68D-05

 Cycle  27  Pass 1  IDiag  3:
 E= -1.72187038379491     Delta-E=       -0.000000000072 Rises=F Damp=F
 DIIS: error= 9.14D-08 at cycle  27 NSaved=  20.
 NSaved=20 IEnMin=20 EnMin= -1.72187038379491     IErMin=20 ErrMin= 9.14D-08
 ErrMax= 9.14D-08  0.00D+00 EMaxC= 1.00D-01 BMatC= 6.55D-13 BMatP= 2.31D-12
 IDIUse=1 WtCom= 1.00D+00 WtEn= 0.00D+00
 Coeff-Com:  0.336D-04-0.854D-05-0.175D-03 0.218D-03 0.822D-04-0.270D-03
 Coeff-Com:  0.115D-03-0.412D-03 0.108D-02-0.767D-03-0.245D-02 0.799D-02
 Coeff-Com: -0.161D-01 0.181D-01 0.115D-01-0.864D-01 0.753D-01 0.746D-01
 Coeff-Com: -0.653D+00 0.157D+01
 Coeff:      0.336D-04-0.854D-05-0.175D-03 0.218D-03 0.822D-04-0.270D-03
 Coeff:      0.115D-03-0.412D-03 0.108D-02-0.767D-03-0.245D-02 0.799D-02
 Coeff:     -0.161D-01 0.181D-01 0.115D-01-0.864D-01 0.753D-01 0.746D-01
 Coeff:     -0.653D+00 0.157D+01
 Gap=     0.147 Goal=   None    Shift=    0.000
 RMSDP=5.39D-07 MaxDP=5.59D-06 DE=-7.19D-11 OVMax= 1.14D-05

 Cycle  28  Pass 1  IDiag  3:
 E= -1.72187038381338     Delta-E=       -0.000000000018 Rises=F Damp=F
 DIIS: error= 4.20D-08 at cycle  28 NSaved=  20.
 NSaved=20 IEnMin=20 EnMin= -1.72187038381338     IErMin=20 ErrMin= 4.20D-08
 ErrMax= 4.20D-08  0.00D+00 EMaxC= 1.00D-01 BMatC= 1.27D-13 BMatP= 6.55D-13
 IDIUse=1 WtCom= 1.00D+00 WtEn= 0.00D+00
 Coeff-Com: -0.252D-04 0.125D-03-0.244D-03 0.236D-03-0.129D-03-0.220D-04
 Coeff-Com:  0.290D-03-0.419D-03-0.366D-03 0.187D-02-0.488D-02 0.843D-02
 Coeff-Com: -0.755D-02 0.159D-02 0.166D-01-0.483D-01 0.782D-01-0.289D-01
 Coeff-Com: -0.375D+00 0.136D+01
 Coeff:     -0.252D-04 0.125D-03-0.244D-03 0.236D-03-0.129D-03-0.220D-04
 Coeff:      0.290D-03-0.419D-03-0.366D-03 0.187D-02-0.488D-02 0.843D-02
 Coeff:     -0.755D-02 0.159D-02 0.166D-01-0.483D-01 0.782D-01-0.289D-01
 Coeff:     -0.375D+00 0.136D+01
 Gap=     0.147 Goal=   None    Shift=    0.000
 RMSDP=1.43D-07 MaxDP=1.43D-06 DE=-1.85D-11 OVMax= 2.95D-06

 Cycle  29  Pass 1  IDiag  3:
 E= -1.72187038381486     Delta-E=       -0.000000000001 Rises=F Damp=F
 DIIS: error= 2.45D-08 at cycle  29 NSaved=  20.
 NSaved=20 IEnMin=20 EnMin= -1.72187038381486     IErMin=20 ErrMin= 2.45D-08
 ErrMax= 2.45D-08  0.00D+00 EMaxC= 1.00D-01 BMatC= 3.35D-14 BMatP= 1.27D-13
 IDIUse=1 WtCom= 1.00D+00 WtEn= 0.00D+00
 Coeff-Com: -0.454D-04 0.132D-03-0.136D-03 0.681D-04 0.141D-04-0.130D-03
 Coeff-Com:  0.322D-03 0.185D-03-0.130D-02 0.264D-02-0.461D-02 0.557D-02
 Coeff-Com: -0.286D-02-0.173D-02 0.251D-01-0.679D-01 0.101D+00 0.722D-01
 Coeff-Com: -0.940D+00 0.181D+01
 Coeff:     -0.454D-04 0.132D-03-0.136D-03 0.681D-04 0.141D-04-0.130D-03
 Coeff:      0.322D-03 0.185D-03-0.130D-02 0.264D-02-0.461D-02 0.557D-02
 Coeff:     -0.286D-02-0.173D-02 0.251D-01-0.679D-01 0.101D+00 0.722D-01
 Coeff:     -0.940D+00 0.181D+01
 Gap=     0.147 Goal=   None    Shift=    0.000
 RMSDP=5.28D-08 MaxDP=3.19D-07 DE=-1.48D-12 OVMax= 8.68D-07

 Cycle  30  Pass 1  IDiag  3:
 E= -1.72187038381549     Delta-E=       -0.000000000001 Rises=F Damp=F
 DIIS: error= 8.60D-09 at cycle  30 NSaved=  20.
 NSaved=20 IEnMin=20 EnMin= -1.72187038381549     IErMin=20 ErrMin= 8.60D-09
 ErrMax= 8.60D-09  0.00D+00 EMaxC= 1.00D-01 BMatC= 5.28D-15 BMatP= 3.35D-14
 IDIUse=1 WtCom= 1.00D+00 WtEn= 0.00D+00
 Large coefficients: NSaved= 20 BigCof=    0.00 CofMax=   10.00 Det=-1.73D-15
 Inversion failed.  Reducing to 19 matrices.
 Large coefficients: NSaved= 19 BigCof=    0.00 CofMax=   10.00 Det=-1.74D-15
 Inversion failed.  Reducing to 18 matrices.
 Large coefficients: NSaved= 18 BigCof=    0.00 CofMax=   10.00 Det=-1.74D-15
 Inversion failed.  Reducing to 17 matrices.
 Large coefficients: NSaved= 17 BigCof=    0.00 CofMax=   10.00 Det=-1.75D-15
 Inversion failed.  Reducing to 16 matrices.
 Large coefficients: NSaved= 16 BigCof=    0.00 CofMax=   10.00 Det=-1.76D-15
 Inversion failed.  Reducing to 15 matrices.
 Coeff-Com: -0.301D-04-0.721D-04 0.591D-03-0.124D-02 0.213D-02-0.286D-02
 Coeff-Com:  0.131D-03 0.452D-02-0.146D-01 0.390D-01-0.630D-01 0.272D-02
 Coeff-Com:  0.353D+00-0.968D+00 0.165D+01
 Coeff:     -0.301D-04-0.721D-04 0.591D-03-0.124D-02 0.213D-02-0.286D-02
 Coeff:      0.131D-03 0.452D-02-0.146D-01 0.390D-01-0.630D-01 0.272D-02
 Coeff:      0.353D+00-0.968D+00 0.165D+01
 Gap=     0.147 Goal=   None    Shift=    0.000
 RMSDP=2.52D-08 MaxDP=1.58D-07 DE=-6.25D-13 OVMax= 4.90D-07

 Cycle  31  Pass 1  IDiag  3:
 E= -1.72187038381594     Delta-E=       -0.000000000000 Rises=F Damp=F
 DIIS: error= 3.26D-09 at cycle  31 NSaved=  16.
 NSaved=16 IEnMin=16 EnMin= -1.72187038381594     IErMin=16 ErrMin= 3.26D-09
 ErrMax= 3.26D-09  0.00D+00 EMaxC= 1.00D-01 BMatC= 9.15D-16 BMatP= 5.28D-15
 IDIUse=1 WtCom= 1.00D+00 WtEn= 0.00D+00
 Large coefficients: NSaved= 16 BigCof=    0.00 CofMax=   10.00 Det=-2.30D-16
 Inversion failed.  Reducing to 15 matrices.
 Coeff-Com:  0.633D-04-0.281D-03 0.726D-03-0.125D-02 0.149D-02 0.572D-04
 Coeff-Com: -0.282D-02 0.107D-01-0.281D-01 0.420D-01-0.117D-01-0.181D+00
 Coeff-Com:  0.562D+00-0.121D+01 0.181D+01
 Coeff:      0.633D-04-0.281D-03 0.726D-03-0.125D-02 0.149D-02 0.572D-04
 Coeff:     -0.282D-02 0.107D-01-0.281D-01 0.420D-01-0.117D-01-0.181D+00
 Coeff:      0.562D+00-0.121D+01 0.181D+01
 Gap=     0.147 Goal=   None    Shift=    0.000
 RMSDP=8.96D-09 MaxDP=5.88D-08 DE=-4.55D-13 OVMax= 1.20D-07

 Cycle  32  Pass 2  IDiag  1:
 SCF Done:  E(RPM6) =  -1.72187038382     A.U. after   32 cycles
            NFock= 31  Conv=0.90D-08     -V/T= 0.9826
 KE=-9.892147182013D+01 PE=-3.902587770602D+02 EE= 2.163548823933D+02
 Leave Link  502 at Wed Jan  5 15:22:12 2022, MaxMem=   402653184 cpu:             204.8 elap:              36.1
 (Enter /work/01114/jfonner/frontera/gaussian/16rC.01/g16/l601.exe)
 Copying SCF densities to generalized density rwf, IOpCl= 0 IROHF=0.

 **********************************************************************

            Population analysis using the SCF Density.

 **********************************************************************

 Alpha  occ. eigenvalues --   -1.75414  -1.66111  -1.65122  -1.56485  -1.50846
 Alpha  occ. eigenvalues --   -1.47509  -1.36745  -1.27227  -1.22358  -1.17232
 Alpha  occ. eigenvalues --   -1.12914  -1.11505  -1.09199  -1.05664  -1.02342
 Alpha  occ. eigenvalues --   -1.00760  -0.98306  -0.96554  -0.95054  -0.91350
 Alpha  occ. eigenvalues --   -0.88695  -0.85788  -0.80570  -0.79775
 Alpha virt. eigenvalues --   -0.65799  -0.56612  -0.53966  -0.51735  -0.49080
 Alpha virt. eigenvalues --   -0.47194  -0.46310  -0.45014  -0.40036  -0.38944
 Alpha virt. eigenvalues --   -0.37974  -0.37351  -0.36696  -0.35602  -0.34909
 Alpha virt. eigenvalues --   -0.32995  -0.27658  -0.26921  -0.24524  -0.08758
          Condensed to atoms (all electrons):
               1          2          3          4          5          6
     1  C    3.543344   0.000000   0.000000   0.000000   0.000000   0.000000
     2  O    0.000000   6.292155   0.000000   0.000000   0.000000   0.000000
     3  N    0.000000   0.000000   5.277518   0.000000   0.000000   0.000000
     4  C    0.000000   0.000000   0.000000   3.678702   0.000000   0.000000
     5  C    0.000000   0.000000   0.000000   0.000000   3.742386   0.000000
     6  O    0.000000   0.000000   0.000000   0.000000   0.000000   6.064823
     7  N    0.000000   0.000000   0.000000   0.000000   0.000000   0.000000
     8  C    0.000000   0.000000   0.000000   0.000000   0.000000   0.000000
     9  C    0.000000   0.000000   0.000000   0.000000   0.000000   0.000000
    10  C    0.000000   0.000000   0.000000   0.000000   0.000000   0.000000
    11  H    0.000000   0.000000   0.000000   0.000000   0.000000   0.000000
    12  H    0.000000   0.000000   0.000000   0.000000   0.000000   0.000000
    13  H    0.000000   0.000000   0.000000   0.000000   0.000000   0.000000
    14  H    0.000000   0.000000   0.000000   0.000000   0.000000   0.000000
               7          8          9         10         11         12
     1  C    0.000000   0.000000   0.000000   0.000000   0.000000   0.000000
     2  O    0.000000   0.000000   0.000000   0.000000   0.000000   0.000000
     3  N    0.000000   0.000000   0.000000   0.000000   0.000000   0.000000
     4  C    0.000000   0.000000   0.000000   0.000000   0.000000   0.000000
     5  C    0.000000   0.000000   0.000000   0.000000   0.000000   0.000000
     6  O    0.000000   0.000000   0.000000   0.000000   0.000000   0.000000
     7  N    5.050712   0.000000   0.000000   0.000000   0.000000   0.000000
     8  C    0.000000   3.550804   0.000000   0.000000   0.000000   0.000000
     9  C    0.000000   0.000000   4.459379   0.000000   0.000000   0.000000
    10  C    0.000000   0.000000   0.000000   2.972436   0.000000   0.000000
    11  H    0.000000   0.000000   0.000000   0.000000   0.956770   0.000000
    12  H    0.000000   0.000000   0.000000   0.000000   0.000000   1.452125
    13  H    0.000000   0.000000   0.000000   0.000000   0.000000   0.000000
    14  H    0.000000   0.000000   0.000000   0.000000   0.000000   0.000000
              13         14
     1  C    0.000000   0.000000
     2  O    0.000000   0.000000
     3  N    0.000000   0.000000
     4  C    0.000000   0.000000
     5  C    0.000000   0.000000
     6  O    0.000000   0.000000
     7  N    0.000000   0.000000
     8  C    0.000000   0.000000
     9  C    0.000000   0.000000
    10  C    0.000000   0.000000
    11  H    0.000000   0.000000
    12  H    0.000000   0.000000
    13  H    0.737564   0.000000
    14  H    0.000000   0.221281
 Mulliken charges:
               1
     1  C    0.456656
     2  O   -0.292155
     3  N   -0.277518
     4  C    0.321298
     5  C    0.257614
     6  O   -0.064823
     7  N   -0.050712
     8  C    0.449196
     9  C   -0.459379
    10  C    1.027564
    11  H    0.043230
    12  H   -0.452125
    13  H    0.262436
    14  H    0.778719
 Sum of Mulliken charges =   2.00000
 Mulliken charges with hydrogens summed into heavy atoms:
               1
     1  C    0.499886
     2  O   -0.292155
     3  N   -0.277518
     4  C    0.321298
     5  C    0.257614
     6  O   -0.064823
     7  N   -0.050712
     8  C    1.490350
     9  C   -0.911504
    10  C    1.027564
 Charge=              2.0000 electrons
 Dipole moment (field-independent basis, Debye):
    X=             -3.4952    Y=             -5.1694    Z=             60.5867  Tot=             60.9072
 N-N= 2.711034961032D+02 E-N=-3.902587770741D+02  KE=-9.892147182013D+01
 Leave Link  601 at Wed Jan  5 15:22:13 2022, MaxMem=   402653184 cpu:               2.3 elap:               0.6
 (Enter /work/01114/jfonner/frontera/gaussian/16rC.01/g16/l9999.exe)

 Test job not archived.
 1\1\GINC-C208-022\SP\RPM6\ZDO\C6H4N2O2(2+)\SA748948\05-Jan-2022\0\\#p 
 int=acc2e=12 pm6 charge nosymm\\Atom number=14\\2,1\C,0,-4.357,-0.673,
 2.588\O,0,-4.212,-1.87,2.492\N,0,-3.381,0.125,2.953\C,0,-2.062,-0.39,3
 .274\C,0,-1.636,0.175,4.6\O,0,-1.744,1.356,4.862\N,0,-1.095,-0.7,5.415
 \C,0,-0.572,-0.311,6.669\C,0,-0.993,-0.045,2.197\C,0,0.39,-0.488,2.64\
 H,0,-5.30552716,-0.20118288,2.43771751\H,0,-1.26955039,-0.48819893,1.2
 631935\H,0,0.4234133,-0.69379704,6.75571093\H,0,-1.15902642,-0.7322037
 ,7.45823218\\Version=ES64L-G16RevC.01\HF=-1.7218704\RMSD=8.956e-09\Dip
 ole=6.3611702,-0.8997933,9.3423783\PG=C01 [X(C6H4N2O2)]\\@


 IT IS A QUALITY OF REVOLUTIONS NOT TO GO BY OLD LINES OR OLD LAWS,
 BUT TO BREAK UP BOTH, AND MAKE NEW ONES.
                                              -- A. LINCOLN (1848)
 Job cpu time:       0 days  0 hours  4 minutes 25.2 seconds.
 Elapsed time:       0 days  0 hours  0 minutes 46.9 seconds.
 File lengths (MBytes):  RWF=      6 Int=      0 D2E=      0 Chk=      2 Scr=      1
 Normal termination of Gaussian 16 at Wed Jan  5 15:22:14 2022.
