 Entering Gaussian System, Link 0=g16
 Input=4znn_01_gebf_pm6_8.gjf
 Output=4znn_01_gebf_pm6_8.log
 Initial command:
 /work/01114/jfonner/frontera/gaussian/16rC.01/g16/l1.exe "/tmp/Gau-11266.inp" -scrdir="/tmp/"
 Entering Link 1 = /work/01114/jfonner/frontera/gaussian/16rC.01/g16/l1.exe PID=     11267.
  
 Copyright (c) 1988-2019, Gaussian, Inc.  All Rights Reserved.
  
 This is part of the Gaussian(R) 16 program.  It is based on
 the Gaussian(R) 09 system (copyright 2009, Gaussian, Inc.),
 the Gaussian(R) 03 system (copyright 2003, Gaussian, Inc.),
 the Gaussian(R) 98 system (copyright 1998, Gaussian, Inc.),
 the Gaussian(R) 94 system (copyright 1995, Gaussian, Inc.),
 the Gaussian 92(TM) system (copyright 1992, Gaussian, Inc.),
 the Gaussian 90(TM) system (copyright 1990, Gaussian, Inc.),
 the Gaussian 88(TM) system (copyright 1988, Gaussian, Inc.),
 the Gaussian 86(TM) system (copyright 1986, Carnegie Mellon
 University), and the Gaussian 82(TM) system (copyright 1983,
 Carnegie Mellon University). Gaussian is a federally registered
 trademark of Gaussian, Inc.
  
 This software contains proprietary and confidential information,
 including trade secrets, belonging to Gaussian, Inc.
  
 This software is provided under written license and may be
 used, copied, transmitted, or stored only in accord with that
 written license.
  
 The following legend is applicable only to US Government
 contracts under FAR:
  
                    RESTRICTED RIGHTS LEGEND
  
 Use, reproduction and disclosure by the US Government is
 subject to restrictions as set forth in subparagraphs (a)
 and (c) of the Commercial Computer Software - Restricted
 Rights clause in FAR 52.227-19.
  
 Gaussian, Inc.
 340 Quinnipiac St., Bldg. 40, Wallingford CT 06492
  
  
 ---------------------------------------------------------------
 Warning -- This program may not be used in any manner that
 competes with the business of Gaussian, Inc. or will provide
 assistance to any competitor of Gaussian, Inc.  The licensee
 of this program is prohibited from giving any competitor of
 Gaussian, Inc. access to this program.  By using this program,
 the user acknowledges that Gaussian, Inc. is engaged in the
 business of creating and licensing software in the field of
 computational chemistry and represents and warrants to the
 licensee that it is not a competitor of Gaussian, Inc. and that
 it will not use this program in any manner prohibited above.
 ---------------------------------------------------------------
  

 Cite this work as:
 Gaussian 16, Revision C.01,
 M. J. Frisch, G. W. Trucks, H. B. Schlegel, G. E. Scuseria, 
 M. A. Robb, J. R. Cheeseman, G. Scalmani, V. Barone, 
 G. A. Petersson, H. Nakatsuji, X. Li, M. Caricato, A. V. Marenich, 
 J. Bloino, B. G. Janesko, R. Gomperts, B. Mennucci, H. P. Hratchian, 
 J. V. Ortiz, A. F. Izmaylov, J. L. Sonnenberg, D. Williams-Young, 
 F. Ding, F. Lipparini, F. Egidi, J. Goings, B. Peng, A. Petrone, 
 T. Henderson, D. Ranasinghe, V. G. Zakrzewski, J. Gao, N. Rega, 
 G. Zheng, W. Liang, M. Hada, M. Ehara, K. Toyota, R. Fukuda, 
 J. Hasegawa, M. Ishida, T. Nakajima, Y. Honda, O. Kitao, H. Nakai, 
 T. Vreven, K. Throssell, J. A. Montgomery, Jr., J. E. Peralta, 
 F. Ogliaro, M. J. Bearpark, J. J. Heyd, E. N. Brothers, K. N. Kudin, 
 V. N. Staroverov, T. A. Keith, R. Kobayashi, J. Normand, 
 K. Raghavachari, A. P. Rendell, J. C. Burant, S. S. Iyengar, 
 J. Tomasi, M. Cossi, J. M. Millam, M. Klene, C. Adamo, R. Cammi, 
 J. W. Ochterski, R. L. Martin, K. Morokuma, O. Farkas, 
 J. B. Foresman, and D. J. Fox, Gaussian, Inc., Wallingford CT, 2019.
 
 ******************************************
 Gaussian 16:  ES64L-G16RevC.01  3-Jul-2019
                12-Jan-2022 
 ******************************************
 %chk=4znn_01_gebf_pm6_8.chk
 %nproc=56
 Will use up to   56 processors via shared memory.
 %mem=3gb
 ----------------------------------------------------------------------
 #p int=acc2e=12 pm6 charge nosymm int=acc2e=12 scf=(noincfock,novaracc
 ,fermi,maxcycle=128,ndamp=64,xqc)
 ----------------------------------------------------------------------
 1/18=10,28=-2,38=1,125=101,172=1/1;
 2/12=2,15=1,17=6,18=5,40=1/2;
 3/5=2,25=1,27=12,41=3900000/1,2,3;
 4/35=1/1;
 5/5=100002,7=128,8=3,13=1,18=-1,22=13,35=1,38=1,87=12,93=64/2,8;
 6/7=2,8=2,9=2,10=2,28=1,87=12/1;
 99/5=1,9=1/99;
 Leave Link    1 at Wed Jan 12 16:09:14 2022, MaxMem=   402653184 cpu:               2.2 elap:               0.0
 (Enter /work/01114/jfonner/frontera/gaussian/16rC.01/g16/l101.exe)
 --------------
 Atom number=23
 --------------
 Symbolic Z-matrix:
 Charge =  6 Multiplicity = 1
 c                     3.424     0.965     17.631 
 o                     3.136     2.11      17.612 
 n                     3.173     0.129     18.647 
 c                     2.559     0.516     19.903 
 c                     3.35     -0.122     21.014 
 o                     3.366    -1.339     21.14 
 n                     4.067     0.688     21.768 
 c                     4.888     0.205     22.851 
 c                     4.35      0.769     24.174 
 o                     4.161     1.981     24.269 
 n                     4.065    -0.12      25.151 
 c                     3.72      0.313     26.515 
 c                     1.138    -0.021     19.983 
 o                     0.393     0.394     18.824 
 c                     0.486     0.501     21.167 
 c                     6.362     0.614     22.652 
 c                     7.152     0.297     23.874 
 c                     6.953    -0.121     21.455 
 c                     4.941     0.14      27.42 
 o                     5.714    -0.809     27.287 
 o                     5.25      0.955     28.294 
 c                     2.499    -0.422     27.062 
 h                     3.94674   0.55968   16.78995 
 
 ITRead=  0  0  0  0  0  0  0  0  0  0  0  0  0  0  0  0  0  0  0  0
 ITRead=  0  0  0
 MicOpt= -1 -1 -1 -1 -1 -1 -1 -1 -1 -1 -1 -1 -1 -1 -1 -1 -1 -1 -1 -1
 MicOpt= -1 -1 -1
 NAtoms=     23 NQM=       23 NQMF=       0 NMMI=      0 NMMIF=      0
                NMic=       0 NMicF=      0.
                    Isotopes and Nuclear Properties:
 (Nuclear quadrupole moments (NQMom) in fm**2, nuclear magnetic moments (NMagM)
  in nuclear magnetons)

  Atom         1           2           3           4           5           6           7           8           9          10
 IAtWgt=          12          16          14          12          12          16          14          12          12          16
 AtmWgt=  12.0000000  15.9949146  14.0030740  12.0000000  12.0000000  15.9949146  14.0030740  12.0000000  12.0000000  15.9949146
 NucSpn=           0           0           2           0           0           0           2           0           0           0
 AtZEff=  -0.0000000  -0.0000000  -0.0000000  -0.0000000  -0.0000000  -0.0000000  -0.0000000  -0.0000000  -0.0000000  -0.0000000
 NQMom=    0.0000000   0.0000000   2.0440000   0.0000000   0.0000000   0.0000000   2.0440000   0.0000000   0.0000000   0.0000000
 NMagM=    0.0000000   0.0000000   0.4037610   0.0000000   0.0000000   0.0000000   0.4037610   0.0000000   0.0000000   0.0000000
 AtZNuc=   6.0000000   8.0000000   7.0000000   6.0000000   6.0000000   8.0000000   7.0000000   6.0000000   6.0000000   8.0000000

  Atom        11          12          13          14          15          16          17          18          19          20
 IAtWgt=          14          12          12          16          12          12          12          12          12          16
 AtmWgt=  14.0030740  12.0000000  12.0000000  15.9949146  12.0000000  12.0000000  12.0000000  12.0000000  12.0000000  15.9949146
 NucSpn=           2           0           0           0           0           0           0           0           0           0
 AtZEff=  -0.0000000  -0.0000000  -0.0000000  -0.0000000  -0.0000000  -0.0000000  -0.0000000  -0.0000000  -0.0000000  -0.0000000
 NQMom=    2.0440000   0.0000000   0.0000000   0.0000000   0.0000000   0.0000000   0.0000000   0.0000000   0.0000000   0.0000000
 NMagM=    0.4037610   0.0000000   0.0000000   0.0000000   0.0000000   0.0000000   0.0000000   0.0000000   0.0000000   0.0000000
 AtZNuc=   7.0000000   6.0000000   6.0000000   8.0000000   6.0000000   6.0000000   6.0000000   6.0000000   6.0000000   8.0000000

  Atom        21          22          23
 IAtWgt=          16          12           1
 AtmWgt=  15.9949146  12.0000000   1.0078250
 NucSpn=           0           0           1
 AtZEff=  -0.0000000  -0.0000000  -0.0000000
 NQMom=    0.0000000   0.0000000   0.0000000
 NMagM=    0.0000000   0.0000000   2.7928460
 AtZNuc=   8.0000000   6.0000000   1.0000000
 Background charge distribution read from input stream:
 Point Charges:
 XYZ=   -6.8150   -0.6680    1.6070 Q=    0.1840 A=    0.0000 R=    0.0000 C=    0.0000
 XYZ=   -5.7140    0.0020    2.3730 Q=    0.1690 A=    0.0000 R=    0.0000 C=    0.0000
 XYZ=   -4.3570   -0.6730    2.5880 Q=    0.1957 A=    0.0000 R=    0.0000 C=    0.0000
 XYZ=   -4.2120   -1.8700    2.4920 Q=   -0.4612 A=    0.0000 R=    0.0000 C=    0.0000
 XYZ=   -3.3810    0.1250    2.9530 Q=   -0.3003 A=    0.0000 R=    0.0000 C=    0.0000
 XYZ=   -2.0620   -0.3900    3.2740 Q=    0.2639 A=    0.0000 R=    0.0000 C=    0.0000
 XYZ=   -1.6360    0.1750    4.6000 Q=    0.1489 A=    0.0000 R=    0.0000 C=    0.0000
 XYZ=   -1.7440    1.3560    4.8620 Q=   -0.3095 A=    0.0000 R=    0.0000 C=    0.0000
 XYZ=   -0.9930   -0.0450    2.1970 Q=   -1.2213 A=    0.0000 R=    0.0000 C=    0.0000
 XYZ=    0.3900   -0.4880    2.6400 Q=    0.9359 A=    0.0000 R=    0.0000 C=    0.0000
 XYZ=   -1.3780   -0.6620    0.8970 Q=    0.8742 A=    0.0000 R=    0.0000 C=    0.0000
 XYZ=   -1.0950   -0.7000    5.4150 Q=   -0.4278 A=    0.0000 R=    0.0000 C=    0.0000
 XYZ=   -0.5720   -0.3110    6.6690 Q=    0.2444 A=    0.0000 R=    0.0000 C=    0.0000
 XYZ=    0.8400   -0.8540    6.7920 Q=    0.2936 A=    0.0000 R=    0.0000 C=    0.0000
 XYZ=    1.0270   -2.0220    6.7200 Q=   -0.4615 A=    0.0000 R=    0.0000 C=    0.0000
 XYZ=   -1.4110   -0.9130    7.7970 Q=   -1.2093 A=    0.0000 R=    0.0000 C=    0.0000
 XYZ=   -0.7270   -0.6450    9.1230 Q=    0.9838 A=    0.0000 R=    0.0000 C=    0.0000
 XYZ=   -2.8000   -0.3490    7.7890 Q=    0.9737 A=    0.0000 R=    0.0000 C=    0.0000
 XYZ=    1.8100    0.0020    7.0230 Q=   -0.6094 A=    0.0000 R=    0.0000 C=    0.0000
 XYZ=    3.1910   -0.4290    7.1010 Q=   -0.0383 A=    0.0000 R=    0.0000 C=    0.0000
 XYZ=    3.9110    0.2580    8.2290 Q=    0.2652 A=    0.0000 R=    0.0000 C=    0.0000
 XYZ=    4.0640    1.4780    8.2280 Q=   -0.5489 A=    0.0000 R=    0.0000 C=    0.0000
 XYZ=    3.8710   -0.1030    5.7480 Q=    0.4467 A=    0.0000 R=    0.0000 C=    0.0000
 XYZ=    5.2470   -0.6430    5.5810 Q=   -0.4177 A=    0.0000 R=    0.0000 C=    0.0000
 XYZ=    5.8610   -0.6890    4.3530 Q=   -0.2968 A=    0.0000 R=    0.0000 C=    0.0000
 XYZ=    6.1080   -1.1970    6.4480 Q=    0.2630 A=    0.0000 R=    0.0000 C=    0.0000
 XYZ=    7.0590   -1.2270    4.4820 Q=    0.6103 A=    0.0000 R=    0.0000 C=    0.0000
 XYZ=    7.2390   -1.5230    5.7510 Q=   -0.3347 A=    0.0000 R=    0.0000 C=    0.0000
 XYZ=    4.3640   -0.5270    9.1890 Q=   -0.5070 A=    0.0000 R=    0.0000 C=    0.0000
 XYZ=    5.0670    0.0200   10.3260 Q=    0.3996 A=    0.0000 R=    0.0000 C=    0.0000
 XYZ=    4.2710    0.8170   11.2960 Q=    0.1621 A=    0.0000 R=    0.0000 C=    0.0000
 XYZ=    4.3590    2.0330   11.3670 Q=   -0.2980 A=    0.0000 R=    0.0000 C=    0.0000
 XYZ=    3.4920    0.1040   12.0730 Q=   -0.4667 A=    0.0000 R=    0.0000 C=    0.0000
 XYZ=    2.5850    0.6770   13.0850 Q=    0.2746 A=    0.0000 R=    0.0000 C=    0.0000
 XYZ=    3.0060    0.0470   14.3610 Q=    0.2391 A=    0.0000 R=    0.0000 C=    0.0000
 XYZ=    2.9580   -1.1690   14.5150 Q=   -0.4626 A=    0.0000 R=    0.0000 C=    0.0000
 XYZ=    1.1270    0.3300   12.8270 Q=   -1.2217 A=    0.0000 R=    0.0000 C=    0.0000
 XYZ=    0.2480    0.6750   14.0380 Q=    0.9822 A=    0.0000 R=    0.0000 C=    0.0000
 XYZ=    0.6740    1.0470   11.5960 Q=    0.9278 A=    0.0000 R=    0.0000 C=    0.0000
 XYZ=    3.4810    0.8870   15.2620 Q=   -0.6284 A=    0.0000 R=    0.0000 C=    0.0000
 XYZ=    4.1630    0.3920   16.4420 Q=    0.1821 A=    0.0000 R=    0.0000 C=    0.0000
 XYZ=    5.6880    0.7500   16.3890 Q=   -0.3175 A=    0.0000 R=    0.0000 C=    0.0000
 XYZ=    6.2640    0.1300   15.2360 Q=   -0.3082 A=    0.0000 R=    0.0000 C=    0.0000
 XYZ=    6.4200    0.2100   17.5690 Q=    0.9463 A=    0.0000 R=    0.0000 C=    0.0000
 Pt Chg Charge=              0.1193 electrons
 Pt Chg Dipole moment (Debye):
    X=            -22.6372    Y=              2.0742    Z=              6.1523  Tot=             23.5498
 Pt Chg Quadrupole moment (Debye-Ang):
   XX=             76.5091   YY=            -27.5523   ZZ=            389.3116
   XY=            -23.5934   XZ=           -143.1083   YZ=             53.8538
 Pt Chg Traceless Quadrupole moment (Debye-Ang):
   XX=            -69.5804   YY=           -173.6418   ZZ=            243.2221
   XY=            -23.5934   XZ=           -143.1083   YZ=             53.8538
 Pt Chg Octapole moment (Debye-Ang**2):
  XXX=            124.1660  YYY=             16.5120  ZZZ=           9497.5269  XYY=            -31.7604
  XXY=           -103.2553  XXZ=            893.7383  XZZ=             79.3317  YZZ=            697.0277
  YYZ=           -214.4212  XYZ=           -167.4260
 Pt Chg Hexadecapole moment (Debye-Ang**3):
 XXXX=           7370.2595 YYYY=           -107.4640 ZZZZ=         197672.6504 XXXY=           -667.2052
 XXXZ=           7506.5870 YYYX=           -121.0499 YYYZ=             50.0325 ZZZX=          32919.9422
 ZZZY=           9180.7163 XXYY=           -361.0555 XXZZ=          20885.4587 YYZZ=          -1973.3369
 XXYZ=           -835.1420 YYXZ=           -652.5369 ZZXY=          -1417.2445
 Leave Link  101 at Wed Jan 12 16:09:14 2022, MaxMem=   402653184 cpu:               5.7 elap:               0.1
 (Enter /work/01114/jfonner/frontera/gaussian/16rC.01/g16/l202.exe)
                          Input orientation:                          
 ---------------------------------------------------------------------
 Center     Atomic      Atomic             Coordinates (Angstroms)
 Number     Number       Type             X           Y           Z
 ---------------------------------------------------------------------
      1          6           0        3.424000    0.965000   17.631000
      2          8           0        3.136000    2.110000   17.612000
      3          7           0        3.173000    0.129000   18.647000
      4          6           0        2.559000    0.516000   19.903000
      5          6           0        3.350000   -0.122000   21.014000
      6          8           0        3.366000   -1.339000   21.140000
      7          7           0        4.067000    0.688000   21.768000
      8          6           0        4.888000    0.205000   22.851000
      9          6           0        4.350000    0.769000   24.174000
     10          8           0        4.161000    1.981000   24.269000
     11          7           0        4.065000   -0.120000   25.151000
     12          6           0        3.720000    0.313000   26.515000
     13          6           0        1.138000   -0.021000   19.983000
     14          8           0        0.393000    0.394000   18.824000
     15          6           0        0.486000    0.501000   21.167000
     16          6           0        6.362000    0.614000   22.652000
     17          6           0        7.152000    0.297000   23.874000
     18          6           0        6.953000   -0.121000   21.455000
     19          6           0        4.941000    0.140000   27.420000
     20          8           0        5.714000   -0.809000   27.287000
     21          8           0        5.250000    0.955000   28.294000
     22          6           0        2.499000   -0.422000   27.062000
     23          1           0        3.946738    0.559684   16.789951
 ---------------------------------------------------------------------
                    Distance matrix (angstroms):
                    1          2          3          4          5
     1  C    0.000000
     2  O    1.180818   0.000000
     3  N    1.339460   2.235387   0.000000
     4  C    2.472208   2.849991   1.450621   0.000000
     5  C    3.554115   4.074460   2.386843   1.505671   0.000000
     6  O    4.198197   4.939158   2.899538   2.371169   1.223610
     7  N    4.195825   4.490120   3.294292   2.404553   1.318600
     8  C    5.474422   5.843428   4.540993   3.769836   2.418045
     9  C    6.611107   6.806756   5.687061   4.638225   3.432125
    10  O    6.755625   6.736684   6.001078   4.875919   3.959211
    11  N    7.624861   7.916594   6.569603   5.496730   4.198333
    12  C    8.912810   9.101301   7.889137   6.716225   5.530563
    13  C    3.424894   3.762287   2.438979   1.521187   2.442561
    14  O    3.307000   3.455090   2.798205   2.422949   3.715670
    15  C    4.620653   4.716928   3.702533   2.428014   2.934967
    16  C    5.827992   6.168200   5.142467   4.693550   3.506691
    17  C    7.302004   7.656884   6.571316   6.075562   4.776020
    18  C    5.315657   5.857943   4.715481   4.703372   3.629889
    19  C    9.940143  10.165421   8.949384   7.894339   6.605813
    20  O   10.081146  10.429395   9.054619   8.138372   6.738768
    21  O   10.818223  10.950258   9.902566   8.822873   7.600548
    22  C    9.577221   9.804045   8.459911   7.220438   6.114941
    23  H    1.070000   1.933014   2.057375   3.408636   4.320113
                    6          7          8          9         10
     6  O    0.000000
     7  N    2.234841   0.000000
     8  C    2.761873   1.442296   0.000000
     9  C    3.823228   2.423940   1.535535   0.000000
    10  O    4.630882   2.817035   2.386091   1.230321   0.000000
    11  N    4.250022   3.478154   2.464336   1.351323   2.280645
    12  C    5.634274   4.774415   3.847179   2.466803   2.832176
    13  C    2.835447   3.502563   4.726415   5.339057   5.613941
    14  O    4.147996   4.717186   6.038003   6.664906   6.809142
    15  C    3.417708   3.635895   4.722402   4.903506   5.031742
    16  C    3.882830   2.460479   1.542582   2.527578   3.054141
    17  C    4.948237   3.755708   2.486099   2.857269   3.455136
    18  C    3.801226   3.013544   2.513825   3.867903   4.486899
    19  C    6.641270   5.745371   4.569770   3.358785   3.731820
    20  O    6.601486   5.950881   4.624778   3.747179   4.393658
    21  O    7.745425   6.637730   5.506341   4.221255   4.294092
    22  C    6.054970   5.631799   4.881902   3.631147   4.041968
    23  H    4.781755   4.981155   6.143948   7.398014   7.615919
                   11         12         13         14         15
    11  N    0.000000
    12  C    1.472077   0.000000
    13  C    5.940148   7.031735   0.000000
    14  O    7.333397   8.380153   1.438934   0.000000
    15  C    5.391395   6.252616   1.448946   2.347285   0.000000
    16  C    3.472746   4.689726   5.900590   7.094431   6.061796
    17  C    3.366628   4.330561   7.170021   8.437772   7.197570
    18  C    4.690518   6.020319   5.999251   7.086677   6.503224
    19  C    2.446086   1.529639   8.354502   9.728311   7.686179
    20  O    2.785035   2.414726   8.655006  10.068894   8.154906
    21  O    3.526797   2.432674   9.323832  10.657677   8.584634
    22  C    2.489072   1.526524   7.219790   8.541998   6.297231
    23  H    8.389464   9.730819   4.292058   4.098031   5.580207
                   16         17         18         19         20
    16  C    0.000000
    17  C    1.489252   0.000000
    18  C    1.523914   2.462902   0.000000
    19  C    4.997774   4.181780   6.300594   0.000000
    20  O    4.891631   3.865184   6.001724   1.231186   0.000000
    21  O    5.760641   4.856642   7.129510   1.234335   2.083516
    22  C    5.953500   5.686010   7.167089   2.531279   3.246016
    23  H    6.340352   7.779875   5.591389  10.684692  10.732407
                   21         22         23
    21  O    0.000000
    22  C    3.313903   0.000000
    23  H   11.584382  10.419916   0.000000
 Symmetry turned off by external request.
 Stoichiometry    C13HN3O6(6+)
 Framework group  C1[X(C13HN3O6)]
 Deg. of freedom    63
 Full point group                 C1      NOp   1
 Rotational constants (GHZ):           0.5984594           0.1376928           0.1218064
 Leave Link  202 at Wed Jan 12 16:09:14 2022, MaxMem=   402653184 cpu:               0.8 elap:               0.0
 (Enter /work/01114/jfonner/frontera/gaussian/16rC.01/g16/l301.exe)
 Standard basis: VSTO-6G (5D, 7F)
 Ernie: Thresh=  0.10000D-02 Tol=  0.10000D-05 Strict=F.
  NNHCO=     0 NNPyr=     0 NCTC=     0               EPep=         0.000000000
    EC=       660.885892932  ECS=         5.643411158   EG=         0.586341246
   EHC=         0.002203684  EAt=      -138.048288797  AtH=         4.733037702
 EPDDG=         0.000000000  ECC=       667.117849020 EAtT=       142.781326498
    89 basis functions,   534 primitive gaussians,    89 cartesian basis functions
    49 alpha electrons       49 beta electrons
       nuclear repulsion energy       809.8991755180 Hartrees.
 IExCor=    0 DFT=F Ex=HF Corr=None ExCW=0 ScaHFX=  1.000000
 ScaDFX=  1.000000  1.000000  1.000000  1.000000 ScalE2=  1.000000  1.000000
 IRadAn=      5 IRanWt=     -1 IRanGd=            0 ICorTp=0 IEmpDi=  4
 Integral buffers will be    131072 words long.
 Regular integral format.
 Two-electron integral symmetry is turned off.
 Background charge distribution read from rwf.
 PtFMM for NChg=        67 BoxLen=    40.00 Levels= 1 LMax=20 SMax=    51.8 ICnFMM=     1:
 Self energy of the charges =        -2.8808478782 a.u.
 MM   energy of the charges =         0.0000000000 a.u.
 Nuclei-charges interaction =         1.3959801057 a.u.
 Nuclear repulsion after external point charges =      808.4143077455 Hartrees.
 Leave Link  301 at Wed Jan 12 16:09:14 2022, MaxMem=   402653184 cpu:               3.2 elap:               0.1
 (Enter /work/01114/jfonner/frontera/gaussian/16rC.01/g16/l302.exe)
 Do NDO integrals.
 NPDir=0 NMtPBC=     1 NCelOv=     1 NCel=       1 NClECP=     1 NCelD=      1
         NCelK=      1 NCelE2=     1 NClLst=     1 CellRange=     0.0.
 One-electron integrals computed using PRISM.
 NBasis=    89 RedAO= F EigKep=  0.00D+00  NBF=    89
 NBsUse=    89 1.00D-04 EigRej=  0.00D+00 NBFU=    89
 Leave Link  302 at Wed Jan 12 16:09:14 2022, MaxMem=   402653184 cpu:               6.7 elap:               0.1
 (Enter /work/01114/jfonner/frontera/gaussian/16rC.01/g16/l303.exe)
 DipDrv:  MaxL=1.
 Leave Link  303 at Wed Jan 12 16:09:14 2022, MaxMem=   402653184 cpu:               1.5 elap:               0.1
 (Enter /work/01114/jfonner/frontera/gaussian/16rC.01/g16/l401.exe)
 Simple Huckel Guess.
 JPrj=0 DoOrth=F DoCkMO=F.
 Leave Link  401 at Wed Jan 12 16:09:14 2022, MaxMem=   402653184 cpu:               2.7 elap:               0.1
 (Enter /work/01114/jfonner/frontera/gaussian/16rC.01/g16/l502.exe)
 Keep J ints in memory in canonical form, NReq=884745.
 FoFCou: FMM=F IPFlag=           0 FMFlag=           0 FMFlg1=           0
         NFxFlg=           0 DoJE=F BraDBF=F KetDBF=F FulRan=T
         wScrn=  0.000000 ICntrl=       600 IOpCl=  2 I1Cent=           0 NGrid=           0
         NMat0=    1 NMatS0=    221 NMatT0=    0 NMatD0=    1 NMtDS0=    0 NMtDT0=    0
 Symmetry not used in FoFCou.
 Two-electron integral symmetry not used.
 Closed shell SCF:
 Using DIIS extrapolation, IDIIS=    10.
 Overlap will be assumed to be unity.
 NGot=   402653184 LenX=   402547144 LenY=   402538782
 Requested convergence on RMS density matrix=1.00D-08 within 128 cycles.
 Requested convergence on MAX density matrix=1.00D-06.
 Requested convergence on             energy=1.00D-06.
 Level shift goal  0.100 maximum shift  0.100.
 No special actions if energy rises.
 Dynamic level shift is on during FON iterations.

 Cycle   1  Pass 1  IDiag  1:
 E=  4.71169127896667    
 DIIS: error= 4.27D-02 at cycle   1 NSaved=   1.
 NSaved= 1 IEnMin= 1 EnMin=  4.71169127896667     IErMin= 1 ErrMin= 4.27D-02
 ErrMax= 4.27D-02  0.00D+00 EMaxC= 1.00D+00 BMatC= 4.65D-01 BMatP= 4.65D-01
 IDIUse=1 WtCom= 1.00D+00 WtEn= 0.00D+00
 Coeff-Com:  0.100D+01
 Coeff:      0.100D+01
 Gap=     0.173 Goal=     0.100 Shift=    0.000
 T= 1708. Gap= 0.013 NK=0 IS=    1 IE=   89 IFin=   57
          NO(<0.9)=   1  NV(>0.1)=   1     48.69e < EF      0.31e >EF  Err=1.4D-14
 GapD=    0.173 DampG=1.000 DampE=0.500 DampFc=0.5000 IDamp=-1.
 Damping current iteration by 5.00D-01
 RMSDP=3.98D-02 MaxDP=8.15D-01              OVMax= 0.00D+00

 Cycle   2  Pass 1  IDiag  1:
 E=  5.91658358344523     Delta-E=        1.204892304479 Rises=F Damp=T
 DIIS: error= 4.47D-02 at cycle   2 NSaved=   2.
 NSaved= 2 IEnMin= 1 EnMin=  4.71169127896667     IErMin= 1 ErrMin= 4.27D-02
 ErrMax= 4.47D-02  0.00D+00 EMaxC= 1.00D+00 BMatC= 3.12D-01 BMatP= 4.65D-01
 IDIUse=1 WtCom= 1.00D+00 WtEn= 0.00D+00
 Coeff-Com:  0.386D+00 0.614D+00
 Coeff:      0.386D+00 0.614D+00
 T= 1708. Gap= 0.013 NK=0 IS=   45 IE=   89 IFin=   53
          NO(<0.9)=   1  NV(>0.1)=   2     48.70e < EF      0.30e >EF  Err=0.0D+00
 RMSDP=2.45D-02 MaxDP=4.51D-01 DE= 1.20D+00 OVMax= 0.00D+00

 Cycle   3  Pass 1  IDiag  1:
 E=  5.11084836845498     Delta-E=       -0.805735214990 Rises=F Damp=F
 DIIS: error= 4.54D-02 at cycle   3 NSaved=   3.
 NSaved= 3 IEnMin= 1 EnMin=  4.71169127896667     IErMin= 1 ErrMin= 4.27D-02
 ErrMax= 4.54D-02  0.00D+00 EMaxC= 1.00D+00 BMatC= 3.68D-01 BMatP= 3.12D-01
 IDIUse=1 WtCom= 1.00D+00 WtEn= 0.00D+00
 Coeff-Com:  0.842D-01 0.502D+00 0.414D+00
 Coeff:      0.842D-01 0.502D+00 0.414D+00
 T= 1708. Gap= 0.014 NK=0 IS=    1 IE=   89 IFin=   51
          NO(<0.9)=   1  NV(>0.1)=   1     48.76e < EF      0.24e >EF  Err=7.1D-15
 RMSDP=2.47D-02 MaxDP=5.20D-01 DE=-8.06D-01 OVMax= 0.00D+00

 Cycle   4  Pass 1  IDiag  1:
 E=  3.24282162918496     Delta-E=       -1.868026739270 Rises=F Damp=F
 DIIS: error= 3.06D-02 at cycle   4 NSaved=   4.
 NSaved= 4 IEnMin= 4 EnMin=  3.24282162918496     IErMin= 4 ErrMin= 3.06D-02
 ErrMax= 3.06D-02  0.00D+00 EMaxC= 1.00D+00 BMatC= 1.57D-01 BMatP= 3.12D-01
 IDIUse=1 WtCom= 1.00D+00 WtEn= 0.00D+00
 Coeff-Com: -0.190D+00 0.272D+00 0.339D+00 0.579D+00
 Coeff:     -0.190D+00 0.272D+00 0.339D+00 0.579D+00
 Gap=    -0.045 Goal=     0.100 Shift=    0.100
 T= 1672. Gap= 0.027 NK=0 IS=   47 IE=   89 IFin=   51
          NO(<0.9)=   0  NV(>0.1)=   0     48.93e < EF      0.07e >EF  Err=0.0D+00
 GapD=   -0.045 DampG=0.250 DampE=0.500 DampFc=0.1250 IDamp=-1.
 Damping current iteration by 1.25D-01
 RMSDP=1.23D-02 MaxDP=2.50D-01 DE=-1.87D+00 OVMax= 0.00D+00

 Cycle   5  Pass 1  IDiag  1:
 E=  3.11247193148677     Delta-E=       -0.130349697698 Rises=F Damp=T
 DIIS: error= 2.92D-02 at cycle   5 NSaved=   5.
 NSaved= 5 IEnMin= 5 EnMin=  3.11247193148677     IErMin= 5 ErrMin= 2.92D-02
 ErrMax= 2.92D-02  0.00D+00 EMaxC= 1.00D+00 BMatC= 1.31D-01 BMatP= 1.57D-01
 IDIUse=1 WtCom= 1.00D+00 WtEn= 0.00D+00
 Coeff-Com: -0.154D+00 0.145D+00 0.201D+00-0.421D+01 0.502D+01
 Coeff:     -0.154D+00 0.145D+00 0.201D+00-0.421D+01 0.502D+01
 Gap=     0.061 Goal=     0.100 Shift=    0.039
 T= 1590. Gap= 0.096 NK=0 IS=    1 IE=   89 IFin=   52
          NO(<0.9)=   0  NV(>0.1)=   0     49.00e < EF      0.00e >EF  Err=7.1D-15
 GapD=    0.061 DampG=0.500 DampE=0.500 DampFc=0.2500 IDamp=-1.
 Damping current iteration by 2.50D-01
 RMSDP=1.49D-02 MaxDP=2.73D-01 DE=-1.30D-01 OVMax= 0.00D+00

 Cycle   6  Pass 1  IDiag  1:
 E=  2.84211843744868     Delta-E=       -0.270353494038 Rises=F Damp=T
 DIIS: error= 2.38D-02 at cycle   6 NSaved=   6.
 NSaved= 6 IEnMin= 6 EnMin=  2.84211843744868     IErMin= 6 ErrMin= 2.38D-02
 ErrMax= 2.38D-02  0.00D+00 EMaxC= 1.00D+00 BMatC= 7.67D-02 BMatP= 1.31D-01
 IDIUse=1 WtCom= 1.00D+00 WtEn= 0.00D+00
 Coeff-Com: -0.562D-01 0.588D-02 0.677D-01 0.522D+01-0.967D+01 0.543D+01
 Coeff:     -0.562D-01 0.588D-02 0.677D-01 0.522D+01-0.967D+01 0.543D+01
 Gap=     0.136 Goal=     0.100 Shift=    0.000
 T= 1452. Gap= 0.126 NK=3 IS=   39 IE=   55 IFin=   50
          NO(<0.9)=   0  NV(>0.1)=   0     49.00e < EF      0.00e >EF  Err=1.4D-14
 GapD=    0.136 DampG=1.000 DampE=0.500 DampFc=0.5000 IDamp=-1.
 Damping current iteration by 5.00D-01
 RMSDP=1.39D-02 MaxDP=2.26D-01 DE=-2.70D-01 OVMax= 0.00D+00

 Cycle   7  Pass 1  IDiag  1:
 E=  2.46834186102762     Delta-E=       -0.373776576421 Rises=F Damp=T
 DIIS: error= 1.09D-02 at cycle   7 NSaved=   7.
 NSaved= 7 IEnMin= 7 EnMin=  2.46834186102762     IErMin= 7 ErrMin= 1.09D-02
 ErrMax= 1.09D-02  0.00D+00 EMaxC= 1.00D+00 BMatC= 1.53D-02 BMatP= 7.67D-02
 IDIUse=1 WtCom= 1.00D+00 WtEn= 0.00D+00
 Coeff-Com: -0.204D-01-0.300D-01 0.144D-01-0.165D+01 0.372D+01-0.353D+01
 Coeff-Com:  0.249D+01
 Coeff:     -0.204D-01-0.300D-01 0.144D-01-0.165D+01 0.372D+01-0.353D+01
 Coeff:      0.249D+01
 Gap=     0.182 Goal=     0.100 Shift=    0.000
 T= 1291. Gap= 0.130 NK=3 IS=   50 IE=   57 IFin=   49
          NO(<0.9)=   0  NV(>0.1)=   0     49.00e < EF      0.00e >EF  Err=0.0D+00
 GapD=    0.182 DampG=1.000 DampE=0.500 DampFc=0.5000 IDamp=-1.
 Damping current iteration by 5.00D-01
 RMSDP=7.80D-03 MaxDP=1.14D-01 DE=-3.74D-01 OVMax= 0.00D+00

 Cycle   8  Pass 1  IDiag  1:
 E=  2.31712635192969     Delta-E=       -0.151215509098 Rises=F Damp=T
 DIIS: error= 4.17D-03 at cycle   8 NSaved=   8.
 NSaved= 8 IEnMin= 8 EnMin=  2.31712635192969     IErMin= 8 ErrMin= 4.17D-03
 ErrMax= 4.17D-03  0.00D+00 EMaxC= 1.00D+00 BMatC= 3.00D-03 BMatP= 1.53D-02
 IDIUse=1 WtCom= 1.00D+00 WtEn= 0.00D+00
 Coeff-Com:  0.145D-02-0.250D-01 0.827D-02 0.693D+00-0.136D+01 0.123D+01
 Coeff-Com: -0.189D+01 0.234D+01
 Coeff:      0.145D-02-0.250D-01 0.827D-02 0.693D+00-0.136D+01 0.123D+01
 Coeff:     -0.189D+01 0.234D+01
 Gap=     0.146 Goal=     0.100 Shift=    0.000
 T=  993. Gap= 0.146 NK=4 IS=   50 IE=   58 IFin=   49
          NO(<0.9)=   0  NV(>0.1)=   0     49.00e < EF      0.00e >EF  Err=0.0D+00
 GapD=    0.146 DampG=1.000 DampE=1.000 DampFc=1.0000 IDamp=-1.
 RMSDP=4.18D-03 MaxDP=5.33D-02 DE=-1.51D-01 OVMax= 0.00D+00

 Cycle   9  Pass 1  IDiag  3:
 E=  2.17080556594829     Delta-E=       -0.146320785981 Rises=F Damp=F
 DIIS: error= 2.31D-03 at cycle   9 NSaved=   9.
 NSaved= 9 IEnMin= 9 EnMin=  2.17080556594829     IErMin= 9 ErrMin= 2.31D-03
 ErrMax= 2.31D-03  0.00D+00 EMaxC= 1.00D+00 BMatC= 6.92D-04 BMatP= 3.00D-03
 IDIUse=1 WtCom= 1.00D+00 WtEn= 0.00D+00
 Coeff-Com: -0.137D-02-0.102D-01 0.100D-01 0.954D+00-0.158D+01 0.672D+00
 Coeff-Com:  0.799D+00-0.141D+01 0.157D+01
 Coeff:     -0.137D-02-0.102D-01 0.100D-01 0.954D+00-0.158D+01 0.672D+00
 Coeff:      0.799D+00-0.141D+01 0.157D+01
 Gap=     0.149 Goal=     0.100 Shift=    0.000
 T=  511. Gap= 0.149 NK=4 IS=   50 IE=   57 IFin=   49
          NO(<0.9)=   0  NV(>0.1)=   0     49.00e < EF      0.00e >EF  Err=0.0D+00
 GapD=    0.149 DampG=1.000 DampE=1.000 DampFc=1.0000 IDamp=-1.
 RMSDP=1.07D-03 MaxDP=1.43D-02 DE=-1.46D-01 OVMax= 2.65D-02

 Cycle  10  Pass 1  IDiag  3:
 E=  2.16655761616721     Delta-E=       -0.004247949781 Rises=F Damp=F
 DIIS: error= 1.04D-03 at cycle  10 NSaved=  10.
 NSaved=10 IEnMin=10 EnMin=  2.16655761616721     IErMin=10 ErrMin= 1.04D-03
 ErrMax= 1.04D-03  0.00D+00 EMaxC= 1.00D+00 BMatC= 1.53D-04 BMatP= 6.92D-04
 IDIUse=1 WtCom= 1.00D+00 WtEn= 0.00D+00
 Coeff-Com: -0.840D-03 0.217D-02 0.100D-02-0.342D+00 0.705D+00-0.583D+00
 Coeff-Com:  0.430D+00-0.280D+00-0.781D+00 0.185D+01
 Coeff:     -0.840D-03 0.217D-02 0.100D-02-0.342D+00 0.705D+00-0.583D+00
 Coeff:      0.430D+00-0.280D+00-0.781D+00 0.185D+01
 Gap=     0.159 Goal=     0.100 Shift=    0.000
 T=    7. Gap= 0.159 NK=4 IS=   50 IE=   57 IFin=   49
          NO(<0.9)=   0  NV(>0.1)=   0     49.00e < EF      0.00e >EF  Err=0.0D+00
 GapD=    0.159 DampG=1.000 DampE=1.000 DampFc=1.0000 IDamp=-1.
 RMSDP=1.30D-03 MaxDP=1.55D-02 DE=-4.25D-03 OVMax= 3.21D-02

 Cycle  11  Pass 1  IDiag  3:
 E=  2.16430815797844     Delta-E=       -0.002249458189 Rises=F Damp=F
 DIIS: error= 4.57D-04 at cycle  11 NSaved=  11.
 NSaved=11 IEnMin=11 EnMin=  2.16430815797844     IErMin=11 ErrMin= 4.57D-04
 ErrMax= 4.57D-04  0.00D+00 EMaxC= 1.00D+00 BMatC= 3.24D-05 BMatP= 1.53D-04
 IDIUse=1 WtCom= 1.00D+00 WtEn= 0.00D+00
 Coeff-Com: -0.683D-04 0.726D-03-0.103D-02-0.711D-01 0.119D+00-0.345D-01
 Coeff-Com: -0.159D+00 0.251D+00 0.180D+00-0.646D+00 0.136D+01
 Coeff:     -0.683D-04 0.726D-03-0.103D-02-0.711D-01 0.119D+00-0.345D-01
 Coeff:     -0.159D+00 0.251D+00 0.180D+00-0.646D+00 0.136D+01
 Gap=     0.162 Goal=     0.100 Shift=    0.000
 RMSDP=4.65D-04 MaxDP=5.03D-03 DE=-2.25D-03 OVMax= 1.27D-02

 Cycle  12  Pass 1  IDiag  3:
 E=  2.16379840176069     Delta-E=       -0.000509756218 Rises=F Damp=F
 DIIS: error= 3.83D-04 at cycle  12 NSaved=  12.
 NSaved=12 IEnMin=12 EnMin=  2.16379840176069     IErMin=12 ErrMin= 3.83D-04
 ErrMax= 3.83D-04  0.00D+00 EMaxC= 1.00D+00 BMatC= 1.63D-05 BMatP= 3.24D-05
 IDIUse=1 WtCom= 1.00D+00 WtEn= 0.00D+00
 Coeff-Com:  0.187D-03 0.635D-03-0.102D-02 0.887D-01-0.162D+00 0.109D+00
 Coeff-Com: -0.591D-01 0.185D-01 0.252D-01-0.158D+00-0.664D+00 0.180D+01
 Coeff:      0.187D-03 0.635D-03-0.102D-02 0.887D-01-0.162D+00 0.109D+00
 Coeff:     -0.591D-01 0.185D-01 0.252D-01-0.158D+00-0.664D+00 0.180D+01
 Gap=     0.162 Goal=     0.100 Shift=    0.000
 RMSDP=6.99D-04 MaxDP=7.01D-03 DE=-5.10D-04 OVMax= 2.01D-02

 Cycle  13  Pass 1  IDiag  3:
 E=  2.16326040143974     Delta-E=       -0.000538000321 Rises=F Damp=F
 DIIS: error= 2.30D-04 at cycle  13 NSaved=  13.
 NSaved=13 IEnMin=13 EnMin=  2.16326040143974     IErMin=13 ErrMin= 2.30D-04
 ErrMax= 2.30D-04  0.00D+00 EMaxC= 1.00D+00 BMatC= 8.93D-06 BMatP= 1.63D-05
 IDIUse=1 WtCom= 1.00D+00 WtEn= 0.00D+00
 Coeff-Com: -0.899D-03 0.139D-04-0.213D-03 0.200D-01-0.198D-01-0.199D-01
 Coeff-Com:  0.962D-01-0.113D+00-0.199D+00 0.562D+00-0.532D+00-0.666D+00
 Coeff-Com:  0.187D+01
 Coeff:     -0.899D-03 0.139D-04-0.213D-03 0.200D-01-0.198D-01-0.199D-01
 Coeff:      0.962D-01-0.113D+00-0.199D+00 0.562D+00-0.532D+00-0.666D+00
 Coeff:      0.187D+01
 Gap=     0.162 Goal=     0.100 Shift=    0.000
 RMSDP=6.41D-04 MaxDP=7.23D-03 DE=-5.38D-04 OVMax= 2.00D-02

 Cycle  14  Pass 1  IDiag  3:
 E=  2.16293447375813     Delta-E=       -0.000325927682 Rises=F Damp=F
 DIIS: error= 2.00D-04 at cycle  14 NSaved=  14.
 NSaved=14 IEnMin=14 EnMin=  2.16293447375813     IErMin=14 ErrMin= 2.00D-04
 ErrMax= 2.00D-04  0.00D+00 EMaxC= 1.00D+00 BMatC= 4.33D-06 BMatP= 8.93D-06
 IDIUse=1 WtCom= 1.00D+00 WtEn= 0.00D+00
 Coeff-Com:  0.427D-04-0.124D-03 0.162D-03-0.232D-01 0.480D-01-0.484D-01
 Coeff-Com:  0.851D-01-0.887D-01-0.383D-01 0.137D+00 0.896D-01-0.329D+00
 Coeff-Com: -0.333D+00 0.150D+01
 Coeff:      0.427D-04-0.124D-03 0.162D-03-0.232D-01 0.480D-01-0.484D-01
 Coeff:      0.851D-01-0.887D-01-0.383D-01 0.137D+00 0.896D-01-0.329D+00
 Coeff:     -0.333D+00 0.150D+01
 Gap=     0.162 Goal=     0.100 Shift=    0.000
 RMSDP=4.21D-04 MaxDP=5.50D-03 DE=-3.26D-04 OVMax= 1.36D-02

 Cycle  15  Pass 1  IDiag  3:
 E=  2.16279194579909     Delta-E=       -0.000142527959 Rises=F Damp=F
 DIIS: error= 1.89D-04 at cycle  15 NSaved=  15.
 NSaved=15 IEnMin=15 EnMin=  2.16279194579909     IErMin=15 ErrMin= 1.89D-04
 ErrMax= 1.89D-04  0.00D+00 EMaxC= 1.00D+00 BMatC= 2.44D-06 BMatP= 4.33D-06
 IDIUse=1 WtCom= 1.00D+00 WtEn= 0.00D+00
 Coeff-Com: -0.406D-04-0.198D-03 0.352D-03-0.104D-01 0.192D-01-0.168D-01
 Coeff-Com:  0.406D-01-0.532D-01 0.303D-02 0.722D-02-0.588D-01 0.221D+00
 Coeff-Com: -0.247D+00-0.380D+00 0.148D+01
 Coeff:     -0.406D-04-0.198D-03 0.352D-03-0.104D-01 0.192D-01-0.168D-01
 Coeff:      0.406D-01-0.532D-01 0.303D-02 0.722D-02-0.588D-01 0.221D+00
 Coeff:     -0.247D+00-0.380D+00 0.148D+01
 Gap=     0.162 Goal=     0.100 Shift=    0.000
 RMSDP=2.82D-04 MaxDP=4.08D-03 DE=-1.43D-04 OVMax= 9.40D-03

 Cycle  16  Pass 1  IDiag  3:
 E=  2.16271843803702     Delta-E=       -0.000073507762 Rises=F Damp=F
 DIIS: error= 1.81D-04 at cycle  16 NSaved=  16.
 NSaved=16 IEnMin=16 EnMin=  2.16271843803702     IErMin=16 ErrMin= 1.81D-04
 ErrMax= 1.81D-04  0.00D+00 EMaxC= 1.00D+00 BMatC= 1.52D-06 BMatP= 2.44D-06
 IDIUse=1 WtCom= 1.00D+00 WtEn= 0.00D+00
 Coeff-Com: -0.282D-04-0.136D-03 0.359D-03-0.481D-02 0.962D-02-0.112D-01
 Coeff-Com:  0.389D-01-0.547D-01-0.277D-02 0.593D-01-0.109D+00 0.825D-01
 Coeff-Com:  0.795D-01-0.169D+00-0.432D+00 0.151D+01
 Coeff:     -0.282D-04-0.136D-03 0.359D-03-0.481D-02 0.962D-02-0.112D-01
 Coeff:      0.389D-01-0.547D-01-0.277D-02 0.593D-01-0.109D+00 0.825D-01
 Coeff:      0.795D-01-0.169D+00-0.432D+00 0.151D+01
 Gap=     0.162 Goal=     0.100 Shift=    0.000
 RMSDP=2.10D-04 MaxDP=3.42D-03 DE=-7.35D-05 OVMax= 8.40D-03

 Cycle  17  Pass 1  IDiag  3:
 E=  2.16266917618225     Delta-E=       -0.000049261855 Rises=F Damp=F
 DIIS: error= 1.79D-04 at cycle  17 NSaved=  17.
 NSaved=17 IEnMin=17 EnMin=  2.16266917618225     IErMin=17 ErrMin= 1.79D-04
 ErrMax= 1.79D-04  0.00D+00 EMaxC= 1.00D+00 BMatC= 1.22D-06 BMatP= 1.52D-06
 IDIUse=1 WtCom= 1.00D+00 WtEn= 0.00D+00
 Coeff-Com: -0.510D-04-0.951D-04 0.295D-03-0.678D-02 0.141D-01-0.145D-01
 Coeff-Com:  0.368D-01-0.496D-01-0.425D-02 0.558D-01-0.815D-01 0.430D-01
 Coeff-Com:  0.480D-01 0.496D-02-0.259D+00-0.559D-01 0.127D+01
 Coeff:     -0.510D-04-0.951D-04 0.295D-03-0.678D-02 0.141D-01-0.145D-01
 Coeff:      0.368D-01-0.496D-01-0.425D-02 0.558D-01-0.815D-01 0.430D-01
 Coeff:      0.480D-01 0.496D-02-0.259D+00-0.559D-01 0.127D+01
 Gap=     0.162 Goal=     0.100 Shift=    0.000
 RMSDP=1.59D-04 MaxDP=2.84D-03 DE=-4.93D-05 OVMax= 7.04D-03

 Cycle  18  Pass 1  IDiag  3:
 E=  2.16263314272965     Delta-E=       -0.000036033453 Rises=F Damp=F
 DIIS: error= 1.78D-04 at cycle  18 NSaved=  18.
 NSaved=18 IEnMin=18 EnMin=  2.16263314272965     IErMin=18 ErrMin= 1.78D-04
 ErrMax= 1.78D-04  0.00D+00 EMaxC= 1.00D+00 BMatC= 1.09D-06 BMatP= 1.22D-06
 IDIUse=1 WtCom= 1.00D+00 WtEn= 0.00D+00
 Coeff-Com: -0.576D-04-0.660D-04 0.231D-03-0.105D-01 0.219D-01-0.206D-01
 Coeff-Com:  0.398D-01-0.495D-01-0.769D-02 0.601D-01-0.752D-01 0.299D-01
 Coeff-Com:  0.339D-01 0.146D-01-0.103D+00-0.835D-01 0.999D-01 0.105D+01
 Coeff:     -0.576D-04-0.660D-04 0.231D-03-0.105D-01 0.219D-01-0.206D-01
 Coeff:      0.398D-01-0.495D-01-0.769D-02 0.601D-01-0.752D-01 0.299D-01
 Coeff:      0.339D-01 0.146D-01-0.103D+00-0.835D-01 0.999D-01 0.105D+01
 Gap=     0.162 Goal=     0.100 Shift=    0.000
 RMSDP=1.16D-04 MaxDP=2.18D-03 DE=-3.60D-05 OVMax= 5.44D-03

 Cycle  19  Pass 1  IDiag  3:
 E=  2.16260668350299     Delta-E=       -0.000026459227 Rises=F Damp=F
 DIIS: error= 1.80D-04 at cycle  19 NSaved=  19.
 NSaved=19 IEnMin=19 EnMin=  2.16260668350299     IErMin=18 ErrMin= 1.78D-04
 ErrMax= 1.80D-04  0.00D+00 EMaxC= 1.00D+00 BMatC= 1.05D-06 BMatP= 1.09D-06
 IDIUse=1 WtCom= 1.00D+00 WtEn= 0.00D+00
 Coeff-Com: -0.623D-04-0.706D-04 0.196D-03-0.141D-01 0.288D-01-0.257D-01
 Coeff-Com:  0.423D-01-0.497D-01-0.908D-02 0.609D-01-0.656D-01 0.171D-01
 Coeff-Com:  0.265D-01 0.161D-01-0.604D-01 0.161D-01-0.113D+00 0.239D+00
 Coeff-Com:  0.891D+00
 Coeff:     -0.623D-04-0.706D-04 0.196D-03-0.141D-01 0.288D-01-0.257D-01
 Coeff:      0.423D-01-0.497D-01-0.908D-02 0.609D-01-0.656D-01 0.171D-01
 Coeff:      0.265D-01 0.161D-01-0.604D-01 0.161D-01-0.113D+00 0.239D+00
 Coeff:      0.891D+00
 Gap=     0.162 Goal=     0.100 Shift=    0.000
 RMSDP=8.92D-05 MaxDP=1.72D-03 DE=-2.65D-05 OVMax= 4.30D-03

 Cycle  20  Pass 1  IDiag  3:
 E=  2.16258615537174     Delta-E=       -0.000020528131 Rises=F Damp=F
 DIIS: error= 1.82D-04 at cycle  20 NSaved=  20.
 NSaved=20 IEnMin=20 EnMin=  2.16258615537174     IErMin=18 ErrMin= 1.78D-04
 ErrMax= 1.82D-04  0.00D+00 EMaxC= 1.00D+00 BMatC= 1.06D-06 BMatP= 1.05D-06
 IDIUse=1 WtCom= 1.00D+00 WtEn= 0.00D+00
 Coeff-Com: -0.606D-04-0.746D-04 0.190D-03-0.147D-01 0.298D-01-0.263D-01
 Coeff-Com:  0.424D-01-0.494D-01-0.891D-02 0.596D-01-0.635D-01 0.166D-01
 Coeff-Com:  0.246D-01 0.155D-01-0.598D-01 0.292D-01-0.729D-01 0.132D+00
 Coeff-Com:  0.593D+00 0.353D+00
 Coeff:     -0.606D-04-0.746D-04 0.190D-03-0.147D-01 0.298D-01-0.263D-01
 Coeff:      0.424D-01-0.494D-01-0.891D-02 0.596D-01-0.635D-01 0.166D-01
 Coeff:      0.246D-01 0.155D-01-0.598D-01 0.292D-01-0.729D-01 0.132D+00
 Coeff:      0.593D+00 0.353D+00
 Gap=     0.162 Goal=     0.100 Shift=    0.000
 RMSDP=2.98D-05 MaxDP=6.08D-04 DE=-2.05D-05 OVMax= 1.45D-03

 Cycle  21  Pass 1  IDiag  3:
 E=  2.16257920585895     Delta-E=       -0.000006949513 Rises=F Damp=F
 DIIS: error= 1.83D-04 at cycle  21 NSaved=  20.
 NSaved=20 IEnMin=20 EnMin=  2.16257920585895     IErMin=17 ErrMin= 1.78D-04
 ErrMax= 1.83D-04  0.00D+00 EMaxC= 1.00D+00 BMatC= 1.05D-06 BMatP= 1.05D-06
 IDIUse=1 WtCom= 1.00D+00 WtEn= 0.00D+00
 Coeff-Com: -0.735D-04 0.206D-03-0.162D-01 0.326D-01-0.284D-01 0.448D-01
 Coeff-Com: -0.521D-01-0.949D-02 0.608D-01-0.622D-01 0.181D-01 0.181D-01
 Coeff-Com:  0.258D-01-0.506D-01-0.124D-01-0.222D-01 0.207D+00 0.269D+00
 Coeff-Com: -0.279D+00 0.855D+00
 Coeff:     -0.735D-04 0.206D-03-0.162D-01 0.326D-01-0.284D-01 0.448D-01
 Coeff:     -0.521D-01-0.949D-02 0.608D-01-0.622D-01 0.181D-01 0.181D-01
 Coeff:      0.258D-01-0.506D-01-0.124D-01-0.222D-01 0.207D+00 0.269D+00
 Coeff:     -0.279D+00 0.855D+00
 Gap=     0.162 Goal=     0.100 Shift=    0.000
 RMSDP=3.21D-05 MaxDP=6.60D-04 DE=-6.95D-06 OVMax= 1.56D-03

 Cycle  22  Pass 1  IDiag  3:
 E=  2.16257158960389     Delta-E=       -0.000007616255 Rises=F Damp=F
 DIIS: error= 1.84D-04 at cycle  22 NSaved=  20.
 NSaved=20 IEnMin=20 EnMin=  2.16257158960389     IErMin=16 ErrMin= 1.78D-04
 ErrMax= 1.84D-04  0.00D+00 EMaxC= 1.00D+00 BMatC= 1.04D-06 BMatP= 1.05D-06
 IDIUse=1 WtCom= 1.00D+00 WtEn= 0.00D+00
 Coeff-Com:  0.480D-04-0.185D-01 0.366D-01-0.303D-01 0.424D-01-0.473D-01
 Coeff-Com: -0.135D-01 0.553D-01-0.551D-01 0.224D-01 0.208D-01 0.386D-01
 Coeff-Com: -0.524D-01-0.434D-01-0.883D-01 0.224D+00 0.137D+00-0.328D-01
 Coeff-Com:  0.239D+01-0.158D+01
 Coeff:      0.480D-04-0.185D-01 0.366D-01-0.303D-01 0.424D-01-0.473D-01
 Coeff:     -0.135D-01 0.553D-01-0.551D-01 0.224D-01 0.208D-01 0.386D-01
 Coeff:     -0.524D-01-0.434D-01-0.883D-01 0.224D+00 0.137D+00-0.328D-01
 Coeff:      0.239D+01-0.158D+01
 Gap=     0.162 Goal=     0.100 Shift=    0.000
 RMSDP=2.34D-05 MaxDP=4.64D-04 DE=-7.62D-06 OVMax= 1.18D-03

 Cycle  23  Pass 1  IDiag  3:
 E=  2.16257676583780     Delta-E=        0.000005176234 Rises=F Damp=F
 DIIS: error= 1.81D-04 at cycle  23 NSaved=  20.
 NSaved=20 IEnMin=19 EnMin=  2.16257158960389     IErMin=15 ErrMin= 1.78D-04
 ErrMax= 1.81D-04  0.00D+00 EMaxC= 1.00D+00 BMatC= 1.00D-06 BMatP= 1.04D-06
 IDIUse=1 WtCom= 1.00D+00 WtEn= 0.00D+00
 Coeff-Com: -0.169D-01 0.353D-01-0.338D-01 0.559D-01-0.623D-01-0.827D-02
 Coeff-Com:  0.803D-01-0.710D-01 0.139D-01-0.208D-01 0.145D-01-0.235D-01
 Coeff-Com:  0.316D-01 0.721D-01 0.318D+00 0.114D+00 0.535D-02 0.110D+01
 Coeff-Com: -0.420D+01 0.360D+01
 Coeff:     -0.169D-01 0.353D-01-0.338D-01 0.559D-01-0.623D-01-0.827D-02
 Coeff:      0.803D-01-0.710D-01 0.139D-01-0.208D-01 0.145D-01-0.235D-01
 Coeff:      0.316D-01 0.721D-01 0.318D+00 0.114D+00 0.535D-02 0.110D+01
 Coeff:     -0.420D+01 0.360D+01
 Gap=     0.162 Goal=   None    Shift=    0.000
 RMSDP=1.30D-04 MaxDP=2.63D-03 DE= 5.18D-06 OVMax= 6.46D-03

 Cycle  24  Pass 1  IDiag  3:
 E=  2.16260653166069     Delta-E=        0.000029765823 Rises=F Damp=F
 DIIS: error= 1.75D-04 at cycle  24 NSaved=  20.
 NSaved=20 IEnMin=18 EnMin=  2.16257158960389     IErMin=20 ErrMin= 1.75D-04
 ErrMax= 1.75D-04  0.00D+00 EMaxC= 1.00D+00 BMatC= 9.73D-07 BMatP= 1.00D-06
 IDIUse=1 WtCom= 1.00D+00 WtEn= 0.00D+00
 Coeff-Com:  0.295D-02-0.914D-02 0.357D-01-0.487D-01-0.235D-02 0.547D-01
 Coeff-Com: -0.786D-01 0.433D-01 0.421D-02-0.108D-01-0.168D-01-0.863D-02
 Coeff-Com: -0.730D-03 0.328D+00 0.332D+00 0.138D+00 0.392D+00-0.307D+01
 Coeff-Com:  0.170D+01 0.121D+01
 Coeff:      0.295D-02-0.914D-02 0.357D-01-0.487D-01-0.235D-02 0.547D-01
 Coeff:     -0.786D-01 0.433D-01 0.421D-02-0.108D-01-0.168D-01-0.863D-02
 Coeff:     -0.730D-03 0.328D+00 0.332D+00 0.138D+00 0.392D+00-0.307D+01
 Coeff:      0.170D+01 0.121D+01
 Gap=     0.162 Goal=   None    Shift=    0.000
 RMSDP=1.24D-04 MaxDP=2.51D-03 DE= 2.98D-05 OVMax= 6.16D-03

 Cycle  25  Pass 1  IDiag  3:
 E=  2.16263406473672     Delta-E=        0.000027533076 Rises=F Damp=F
 DIIS: error= 1.69D-04 at cycle  25 NSaved=  20.
 NSaved=20 IEnMin=17 EnMin=  2.16257158960389     IErMin=20 ErrMin= 1.69D-04
 ErrMax= 1.69D-04  0.00D+00 EMaxC= 1.00D+00 BMatC= 9.30D-07 BMatP= 9.73D-07
 IDIUse=1 WtCom= 1.00D+00 WtEn= 0.00D+00
 Coeff-Com: -0.199D-02 0.220D-01-0.347D-01-0.226D-02 0.389D-01-0.615D-01
 Coeff-Com:  0.378D-01 0.157D-01-0.168D-01-0.963D-02-0.642D-01 0.598D-01
 Coeff-Com:  0.227D+00 0.284D+00 0.181D+00 0.268D+00-0.160D+01 0.185D+00
 Coeff-Com: -0.959D-01 0.157D+01
 Coeff:     -0.199D-02 0.220D-01-0.347D-01-0.226D-02 0.389D-01-0.615D-01
 Coeff:      0.378D-01 0.157D-01-0.168D-01-0.963D-02-0.642D-01 0.598D-01
 Coeff:      0.227D+00 0.284D+00 0.181D+00 0.268D+00-0.160D+01 0.185D+00
 Coeff:     -0.959D-01 0.157D+01
 Gap=     0.162 Goal=   None    Shift=    0.000
 RMSDP=1.72D-04 MaxDP=3.46D-03 DE= 2.75D-05 OVMax= 8.53D-03

 Cycle  26  Pass 1  IDiag  3:
 E=  2.16267132364158     Delta-E=        0.000037258905 Rises=F Damp=F
 DIIS: error= 1.63D-04 at cycle  26 NSaved=  20.
 NSaved=20 IEnMin=16 EnMin=  2.16257158960389     IErMin=20 ErrMin= 1.63D-04
 ErrMax= 1.63D-04  0.00D+00 EMaxC= 1.00D+00 BMatC= 9.02D-07 BMatP= 9.30D-07
 IDIUse=1 WtCom= 1.00D+00 WtEn= 0.00D+00
 Coeff-Com:  0.122D-01-0.226D-01-0.439D-02 0.312D-01-0.613D-01 0.510D-01
 Coeff-Com:  0.216D-01-0.268D-01-0.569D-02-0.935D-01 0.412D-01 0.218D+00
 Coeff-Com:  0.254D+00 0.287D+00 0.592D+00-0.145D+01 0.240D-01-0.557D+00
 Coeff-Com:  0.870D+00 0.819D+00
 Coeff:      0.122D-01-0.226D-01-0.439D-02 0.312D-01-0.613D-01 0.510D-01
 Coeff:      0.216D-01-0.268D-01-0.569D-02-0.935D-01 0.412D-01 0.218D+00
 Coeff:      0.254D+00 0.287D+00 0.592D+00-0.145D+01 0.240D-01-0.557D+00
 Coeff:      0.870D+00 0.819D+00
 Gap=     0.162 Goal=   None    Shift=    0.000
 RMSDP=9.69D-05 MaxDP=1.96D-03 DE= 3.73D-05 OVMax= 4.79D-03

 Cycle  27  Pass 1  IDiag  3:
 E=  2.16269157616034     Delta-E=        0.000020252519 Rises=F Damp=F
 DIIS: error= 1.62D-04 at cycle  27 NSaved=  20.
 NSaved=20 IEnMin=15 EnMin=  2.16257158960389     IErMin=20 ErrMin= 1.62D-04
 ErrMax= 1.62D-04  0.00D+00 EMaxC= 1.00D+00 BMatC= 8.63D-07 BMatP= 9.02D-07
 IDIUse=1 WtCom= 1.00D+00 WtEn= 0.00D+00
 Coeff-Com:  0.187D-02-0.195D-01 0.252D-01-0.959D-02 0.144D-01-0.109D-01
 Coeff-Com:  0.567D-02-0.424D-03-0.434D-01-0.764D-01 0.152D+00 0.218D+00
 Coeff-Com:  0.340D+00 0.776D+00-0.127D+01-0.108D+01 0.101D-01-0.118D+01
 Coeff-Com:  0.303D+00 0.285D+01
 Coeff:      0.187D-02-0.195D-01 0.252D-01-0.959D-02 0.144D-01-0.109D-01
 Coeff:      0.567D-02-0.424D-03-0.434D-01-0.764D-01 0.152D+00 0.218D+00
 Coeff:      0.340D+00 0.776D+00-0.127D+01-0.108D+01 0.101D-01-0.118D+01
 Coeff:      0.303D+00 0.285D+01
 Gap=     0.162 Goal=   None    Shift=    0.000
 RMSDP=7.78D-04 MaxDP=1.51D-02 DE= 2.03D-05 OVMax= 3.87D-02

 Cycle  28  Pass 1  IDiag  3:
 E=  2.16285761975666     Delta-E=        0.000166043596 Rises=F Damp=F
 DIIS: error= 1.61D-04 at cycle  28 NSaved=  20.
 NSaved=20 IEnMin=14 EnMin=  2.16257158960389     IErMin=20 ErrMin= 1.61D-04
 ErrMax= 1.61D-04  0.00D+00 EMaxC= 1.00D+00 BMatC= 1.72D-06 BMatP= 8.63D-07
 IDIUse=1 WtCom= 1.00D+00 WtEn= 0.00D+00
 Coeff-Com: -0.308D-01 0.541D-01-0.261D-01 0.296D-01-0.504D-01 0.221D-01
 Coeff-Com: -0.240D-01-0.629D-02-0.387D-01 0.824D-01 0.336D+00 0.138D+00
 Coeff-Com: -0.400D+00-0.681D+00-0.102D+01 0.218D+00-0.131D+01 0.103D+01
 Coeff-Com:  0.300D+01-0.315D+00
 Coeff:     -0.308D-01 0.541D-01-0.261D-01 0.296D-01-0.504D-01 0.221D-01
 Coeff:     -0.240D-01-0.629D-02-0.387D-01 0.824D-01 0.336D+00 0.138D+00
 Coeff:     -0.400D+00-0.681D+00-0.102D+01 0.218D+00-0.131D+01 0.103D+01
 Coeff:      0.300D+01-0.315D+00
 Gap=     0.162 Goal=   None    Shift=    0.000
 RMSDP=5.40D-05 MaxDP=8.35D-04 DE= 1.66D-04 OVMax= 2.14D-03

 Cycle  29  Pass 1  IDiag  3:
 E=  2.16284681842092     Delta-E=       -0.000010801336 Rises=F Damp=F
 DIIS: error= 1.70D-04 at cycle  29 NSaved=  20.
 NSaved=20 IEnMin=13 EnMin=  2.16257158960389     IErMin=19 ErrMin= 1.61D-04
 ErrMax= 1.70D-04  0.00D+00 EMaxC= 1.00D+00 BMatC= 1.31D-06 BMatP= 8.63D-07
 IDIUse=1 WtCom= 1.00D+00 WtEn= 0.00D+00
 Coeff-Com: -0.179D-01 0.267D-01 0.575D-01-0.853D-01-0.140D-01 0.341D-01
 Coeff-Com: -0.537D-01-0.816D-02 0.296D-01 0.362D+00-0.213D-01-0.780D+00
 Coeff-Com:  0.638D+00-0.254D+01 0.926D+00-0.123D+01 0.106D+01 0.277D+01
 Coeff-Com: -0.482D+00 0.333D+00
 Coeff:     -0.179D-01 0.267D-01 0.575D-01-0.853D-01-0.140D-01 0.341D-01
 Coeff:     -0.537D-01-0.816D-02 0.296D-01 0.362D+00-0.213D-01-0.780D+00
 Coeff:      0.638D+00-0.254D+01 0.926D+00-0.123D+01 0.106D+01 0.277D+01
 Coeff:     -0.482D+00 0.333D+00
 Gap=     0.162 Goal=   None    Shift=    0.000
 RMSDP=1.57D-04 MaxDP=2.94D-03 DE=-1.08D-05 OVMax= 7.76D-03

 Cycle  30  Pass 1  IDiag  3:
 E=  2.16288156291580     Delta-E=        0.000034744495 Rises=F Damp=F
 DIIS: error= 1.88D-04 at cycle  30 NSaved=  20.
 NSaved=20 IEnMin=12 EnMin=  2.16257158960389     IErMin=18 ErrMin= 1.61D-04
 ErrMax= 1.88D-04  0.00D+00 EMaxC= 1.00D+00 BMatC= 1.53D-06 BMatP= 8.63D-07
 IDIUse=1 WtCom= 1.00D+00 WtEn= 0.00D+00
 Coeff-Com:  0.302D-01 0.170D-02-0.448D-01-0.979D-03-0.582D-01 0.320D-02
 Coeff-Com:  0.117D+00 0.721D-02 0.329D+00-0.299D+00-0.232D+01 0.155D+01
 Coeff-Com: -0.209D+01 0.102D+01-0.719D+00 0.114D+01 0.196D+01-0.106D+00
 Coeff-Com:  0.344D+01-0.297D+01
 Coeff:      0.302D-01 0.170D-02-0.448D-01-0.979D-03-0.582D-01 0.320D-02
 Coeff:      0.117D+00 0.721D-02 0.329D+00-0.299D+00-0.232D+01 0.155D+01
 Coeff:     -0.209D+01 0.102D+01-0.719D+00 0.114D+01 0.196D+01-0.106D+00
 Coeff:      0.344D+01-0.297D+01
 Gap=     0.162 Goal=   None    Shift=    0.000
 RMSDP=7.13D-05 MaxDP=1.34D-03 DE= 3.47D-05 OVMax= 3.38D-03

 Cycle  31  Pass 1  IDiag  3:
 E=  2.16286740432940     Delta-E=       -0.000014158586 Rises=F Damp=F
 DIIS: error= 2.20D-04 at cycle  31 NSaved=  20.
 NSaved=20 IEnMin=11 EnMin=  2.16257158960389     IErMin=17 ErrMin= 1.61D-04
 ErrMax= 2.20D-04  0.00D+00 EMaxC= 1.00D+00 BMatC= 1.85D-06 BMatP= 8.63D-07
 IDIUse=1 WtCom= 1.00D+00 WtEn= 0.00D+00
 Coeff-Com:  0.538D-01-0.511D-01-0.379D-01-0.240D-01-0.279D-01 0.105D+00
 Coeff-Com:  0.192D-01 0.274D+00-0.272D+00-0.231D+01 0.160D+01-0.201D+01
 Coeff-Com:  0.807D+00-0.335D+00 0.973D+00 0.118D+01 0.506D-01 0.561D+01
 Coeff-Com: -0.327D+01-0.134D+01
 Coeff:      0.538D-01-0.511D-01-0.379D-01-0.240D-01-0.279D-01 0.105D+00
 Coeff:      0.192D-01 0.274D+00-0.272D+00-0.231D+01 0.160D+01-0.201D+01
 Coeff:      0.807D+00-0.335D+00 0.973D+00 0.118D+01 0.506D-01 0.561D+01
 Coeff:     -0.327D+01-0.134D+01
 Gap=     0.162 Goal=   None    Shift=    0.000
 RMSDP=2.72D-04 MaxDP=5.08D-03 DE=-1.42D-05 OVMax= 1.34D-02

 Cycle  32  Pass 1  IDiag  3:
 E=  2.16292955161668     Delta-E=        0.000062147287 Rises=F Damp=F
 DIIS: error= 2.52D-04 at cycle  32 NSaved=  20.
 NSaved=20 IEnMin=10 EnMin=  2.16257158960389     IErMin=16 ErrMin= 1.61D-04
 ErrMax= 2.52D-04  0.00D+00 EMaxC= 1.00D+00 BMatC= 2.47D-06 BMatP= 8.63D-07
 IDIUse=1 WtCom= 1.00D+00 WtEn= 0.00D+00
 Coeff-Com:  0.302D-01-0.478D-01-0.476D-01 0.708D-02 0.425D-01-0.295D-01
 Coeff-Com:  0.192D+00-0.237D+00-0.155D+01 0.127D+01-0.205D+01 0.568D+00
 Coeff-Com: -0.221D-01 0.846D+00 0.482D+00 0.389D+00 0.488D+01-0.208D+01
 Coeff-Com: -0.991D-01-0.154D+01
 Coeff:      0.302D-01-0.478D-01-0.476D-01 0.708D-02 0.425D-01-0.295D-01
 Coeff:      0.192D+00-0.237D+00-0.155D+01 0.127D+01-0.205D+01 0.568D+00
 Coeff:     -0.221D-01 0.846D+00 0.482D+00 0.389D+00 0.488D+01-0.208D+01
 Coeff:     -0.991D-01-0.154D+01
 Gap=     0.162 Goal=   None    Shift=    0.000
 RMSDP=1.76D-05 MaxDP=2.07D-04 DE= 6.21D-05 OVMax= 2.56D-04

 Cycle  33  Pass 1  IDiag  3:
 E=  2.16292931736052     Delta-E=       -0.000000234256 Rises=F Damp=F
 DIIS: error= 2.67D-04 at cycle  33 NSaved=  20.
 NSaved=20 IEnMin= 9 EnMin=  2.16257158960389     IErMin=15 ErrMin= 1.61D-04
 ErrMax= 2.67D-04  0.00D+00 EMaxC= 1.00D+00 BMatC= 2.69D-06 BMatP= 8.63D-07
 IDIUse=1 WtCom= 1.00D+00 WtEn= 0.00D+00
 Coeff-Com: -0.328D-01 0.573D-01-0.169D-02-0.747D-01-0.882D-01-0.117D+00
 Coeff-Com:  0.869D-01 0.390D+00-0.125D+01-0.122D+00 0.834D-01 0.347D+00
 Coeff-Com: -0.413D-01-0.103D+01 0.523D+00 0.599D+01-0.132D+01 0.144D+01
 Coeff-Com: -0.148D+01-0.236D+01
 Coeff:     -0.328D-01 0.573D-01-0.169D-02-0.747D-01-0.882D-01-0.117D+00
 Coeff:      0.869D-01 0.390D+00-0.125D+01-0.122D+00 0.834D-01 0.347D+00
 Coeff:     -0.413D-01-0.103D+01 0.523D+00 0.599D+01-0.132D+01 0.144D+01
 Coeff:     -0.148D+01-0.236D+01
 Gap=     0.162 Goal=   None    Shift=    0.000
 RMSDP=7.37D-05 MaxDP=1.33D-03 DE=-2.34D-07 OVMax= 3.51D-03

 Cycle  34  Pass 1  IDiag  3:
 E=  2.16291290125241     Delta-E=       -0.000016416108 Rises=F Damp=F
 DIIS: error= 2.64D-04 at cycle  34 NSaved=  20.
 NSaved=20 IEnMin= 8 EnMin=  2.16257158960389     IErMin=14 ErrMin= 1.61D-04
 ErrMax= 2.64D-04  0.00D+00 EMaxC= 1.00D+00 BMatC= 2.65D-06 BMatP= 8.63D-07
 IDIUse=1 WtCom= 1.00D+00 WtEn= 0.00D+00
 Coeff-Com: -0.515D-01 0.278D-01 0.413D-01-0.589D-01-0.484D-01-0.103D+00
 Coeff-Com: -0.474D+00 0.670D-01-0.971D+00 0.972D-01 0.400D+00 0.266D+00
 Coeff-Com: -0.787D+00 0.592D+00 0.562D+01-0.123D+01 0.105D+01-0.169D+01
 Coeff-Com: -0.357D+01 0.183D+01
 Coeff:     -0.515D-01 0.278D-01 0.413D-01-0.589D-01-0.484D-01-0.103D+00
 Coeff:     -0.474D+00 0.670D-01-0.971D+00 0.972D-01 0.400D+00 0.266D+00
 Coeff:     -0.787D+00 0.592D+00 0.562D+01-0.123D+01 0.105D+01-0.169D+01
 Coeff:     -0.357D+01 0.183D+01
 Gap=     0.162 Goal=   None    Shift=    0.000
 RMSDP=2.02D-05 MaxDP=2.97D-04 DE=-1.64D-05 OVMax= 6.30D-04

 Cycle  35  Pass 1  IDiag  3:
 E=  2.16291385883346     Delta-E=        0.000000957581 Rises=F Damp=F
 DIIS: error= 2.85D-04 at cycle  35 NSaved=  20.
 NSaved=20 IEnMin= 8 EnMin=  2.16257158960389     IErMin=14 ErrMin= 1.61D-04
 ErrMax= 2.85D-04  0.00D+00 EMaxC= 1.00D+00 BMatC= 3.01D-06 BMatP= 8.63D-07
 IDIUse=1 WtCom= 1.00D+00 WtEn= 0.00D+00
 Coeff-Com: -0.724D-01 0.310D-03 0.106D+00-0.347D-01 0.332D-01-0.169D+00
 Coeff-Com: -0.115D+01 0.799D+00-0.145D+01 0.504D+00 0.773D-01 0.335D+00
 Coeff-Com:  0.417D-01 0.176D+00 0.693D+01-0.291D+01-0.414D+00-0.298D+01
 Coeff-Com: -0.339D-01 0.122D+01
 Coeff:     -0.724D-01 0.310D-03 0.106D+00-0.347D-01 0.332D-01-0.169D+00
 Coeff:     -0.115D+01 0.799D+00-0.145D+01 0.504D+00 0.773D-01 0.335D+00
 Coeff:      0.417D-01 0.176D+00 0.693D+01-0.291D+01-0.414D+00-0.298D+01
 Coeff:     -0.339D-01 0.122D+01
 Gap=     0.162 Goal=   None    Shift=    0.000
 RMSDP=1.20D-04 MaxDP=2.27D-03 DE= 9.58D-07 OVMax= 5.98D-03

 Cycle  36  Pass 1  IDiag  3:
 E=  2.16288501408826     Delta-E=       -0.000028844745 Rises=F Damp=F
 DIIS: error= 2.54D-04 at cycle  36 NSaved=  20.
 NSaved=20 IEnMin= 8 EnMin=  2.16257158960389     IErMin=14 ErrMin= 1.61D-04
 ErrMax= 2.54D-04  0.00D+00 EMaxC= 1.00D+00 BMatC= 2.46D-06 BMatP= 8.63D-07
 IDIUse=1 WtCom= 1.00D+00 WtEn= 0.00D+00
 Coeff-Com: -0.643D-01-0.267D-01 0.823D-01-0.146D-01 0.155D+00-0.194D+00
 Coeff-Com: -0.155D+01 0.988D+00-0.176D+01 0.826D+00-0.202D+00 0.683D+00
 Coeff-Com:  0.779D+00 0.606D-01 0.609D+01-0.318D+01-0.100D+01-0.275D+01
 Coeff-Com:  0.124D+01 0.848D+00
 Coeff:     -0.643D-01-0.267D-01 0.823D-01-0.146D-01 0.155D+00-0.194D+00
 Coeff:     -0.155D+01 0.988D+00-0.176D+01 0.826D+00-0.202D+00 0.683D+00
 Coeff:      0.779D+00 0.606D-01 0.609D+01-0.318D+01-0.100D+01-0.275D+01
 Coeff:      0.124D+01 0.848D+00
 Gap=     0.162 Goal=   None    Shift=    0.000
 RMSDP=4.41D-05 MaxDP=7.28D-04 DE=-2.88D-05 OVMax= 1.90D-03

 Cycle  37  Pass 1  IDiag  3:
 E=  2.16287540698079     Delta-E=       -0.000009607107 Rises=F Damp=F
 DIIS: error= 2.32D-04 at cycle  37 NSaved=  20.
 NSaved=20 IEnMin= 8 EnMin=  2.16257158960389     IErMin=14 ErrMin= 1.61D-04
 ErrMax= 2.32D-04  0.00D+00 EMaxC= 1.00D+00 BMatC= 2.06D-06 BMatP= 8.63D-07
 IDIUse=1 WtCom= 1.00D+00 WtEn= 0.00D+00
 Coeff-Com: -0.440D-01-0.323D-01 0.474D-01 0.519D-02 0.157D+00-0.150D+00
 Coeff-Com: -0.138D+01 0.696D+00-0.163D+01 0.811D+00-0.182D+00 0.674D+00
 Coeff-Com:  0.637D+00 0.974D-01 0.540D+01-0.274D+01-0.731D+00-0.199D+01
 Coeff-Com:  0.132D+01 0.337D-01
 Coeff:     -0.440D-01-0.323D-01 0.474D-01 0.519D-02 0.157D+00-0.150D+00
 Coeff:     -0.138D+01 0.696D+00-0.163D+01 0.811D+00-0.182D+00 0.674D+00
 Coeff:      0.637D+00 0.974D-01 0.540D+01-0.274D+01-0.731D+00-0.199D+01
 Coeff:      0.132D+01 0.337D-01
 Gap=     0.162 Goal=   None    Shift=    0.000
 RMSDP=8.78D-05 MaxDP=1.62D-03 DE=-9.61D-06 OVMax= 4.29D-03

 Cycle  38  Pass 1  IDiag  1:
 E=  2.16289478405258     Delta-E=        0.000019377072 Rises=F Damp=F
 DIIS: error= 2.37D-04 at cycle  38 NSaved=  20.
 NSaved=20 IEnMin= 8 EnMin=  2.16257158960389     IErMin=14 ErrMin= 1.61D-04
 ErrMax= 2.37D-04  0.00D+00 EMaxC= 1.00D+00 BMatC= 2.16D-06 BMatP= 8.63D-07
 IDIUse=1 WtCom= 1.00D+00 WtEn= 0.00D+00
 Coeff-Com: -0.109D+00 0.123D-02 0.122D+00 0.419D-01 0.309D+00-0.310D+00
 Coeff-Com: -0.301D+01 0.252D+01-0.281D+01 0.108D+01-0.411D+00 0.147D+01
 Coeff-Com:  0.131D+01 0.253D+00 0.395D+01-0.238D+01-0.175D+01 0.455D+00
 Coeff-Com:  0.478D+01-0.452D+01
 Coeff:     -0.109D+00 0.123D-02 0.122D+00 0.419D-01 0.309D+00-0.310D+00
 Coeff:     -0.301D+01 0.252D+01-0.281D+01 0.108D+01-0.411D+00 0.147D+01
 Coeff:      0.131D+01 0.253D+00 0.395D+01-0.238D+01-0.175D+01 0.455D+00
 Coeff:      0.478D+01-0.452D+01
 RMSDP=8.96D-05 MaxDP=1.66D-03 DE= 1.94D-05 OVMax= 4.29D-03

 Cycle  39  Pass 1  IDiag  3:
 E=  2.16287791539844     Delta-E=       -0.000016868654 Rises=F Damp=F
 DIIS: error= 2.63D-04 at cycle  39 NSaved=  20.
 NSaved=20 IEnMin= 8 EnMin=  2.16257158960389     IErMin=14 ErrMin= 1.61D-04
 ErrMax= 2.63D-04  0.00D+00 EMaxC= 1.00D+00 BMatC= 2.55D-06 BMatP= 8.63D-07
 IDIUse=1 WtCom= 1.00D+00 WtEn= 0.00D+00
 Coeff-Com: -0.830D-01 0.154D-01 0.670D-01 0.329D-01 0.233D+00-0.212D+00
 Coeff-Com: -0.251D+01 0.198D+01-0.259D+01 0.953D+00-0.433D+00 0.136D+01
 Coeff-Com:  0.111D+01 0.285D+00 0.368D+01-0.208D+01-0.142D+01 0.676D+01
 Coeff-Com: -0.515D+01-0.994D+00
 Coeff:     -0.830D-01 0.154D-01 0.670D-01 0.329D-01 0.233D+00-0.212D+00
 Coeff:     -0.251D+01 0.198D+01-0.259D+01 0.953D+00-0.433D+00 0.136D+01
 Coeff:      0.111D+01 0.285D+00 0.368D+01-0.208D+01-0.142D+01 0.676D+01
 Coeff:     -0.515D+01-0.994D+00
 Gap=     0.162 Goal=   None    Shift=    0.000
 RMSDP=1.83D-04 MaxDP=3.45D-03 DE=-1.69D-05 OVMax= 9.71D-03

 Cycle  40  Pass 1  IDiag  3:
 E=  2.16291941444354     Delta-E=        0.000041499045 Rises=F Damp=F
 DIIS: error= 2.84D-04 at cycle  40 NSaved=  20.
 NSaved=20 IEnMin= 8 EnMin=  2.16257158960389     IErMin=14 ErrMin= 1.61D-04
 ErrMax= 2.84D-04  0.00D+00 EMaxC= 1.00D+00 BMatC= 2.95D-06 BMatP= 8.63D-07
 IDIUse=1 WtCom= 1.00D+00 WtEn= 0.00D+00
 Coeff-Com: -0.693D-01-0.619D-01 0.149D+00 0.508D-01 0.318D+00-0.363D+00
 Coeff-Com: -0.262D+01 0.225D+01-0.240D+01 0.838D+00-0.352D+00 0.109D+01
 Coeff-Com:  0.126D+01 0.111D+00 0.456D+01-0.294D+01-0.119D+01 0.293D+00
 Coeff-Com:  0.115D+01-0.107D+01
 Coeff:     -0.693D-01-0.619D-01 0.149D+00 0.508D-01 0.318D+00-0.363D+00
 Coeff:     -0.262D+01 0.225D+01-0.240D+01 0.838D+00-0.352D+00 0.109D+01
 Coeff:      0.126D+01 0.111D+00 0.456D+01-0.294D+01-0.119D+01 0.293D+00
 Coeff:      0.115D+01-0.107D+01
 Gap=     0.161 Goal=   None    Shift=    0.000
 RMSDP=1.37D-04 MaxDP=2.63D-03 DE= 4.15D-05 OVMax= 7.15D-03

 Cycle  41  Pass 1  IDiag  3:
 E=  2.16288736795229     Delta-E=       -0.000032046491 Rises=F Damp=F
 DIIS: error= 2.46D-04 at cycle  41 NSaved=  20.
 NSaved=20 IEnMin= 8 EnMin=  2.16257158960389     IErMin=14 ErrMin= 1.61D-04
 ErrMax= 2.46D-04  0.00D+00 EMaxC= 1.00D+00 BMatC= 2.28D-06 BMatP= 8.63D-07
 IDIUse=1 WtCom= 1.00D+00 WtEn= 0.00D+00
 Coeff-Com: -0.111D+00-0.107D-01 0.160D+00 0.954D-01 0.428D+00-0.248D+00
 Coeff-Com: -0.271D+01 0.193D+01-0.174D+01 0.439D+00-0.942D+00 0.124D+01
 Coeff-Com:  0.218D+01-0.243D+00 0.811D+00-0.366D+00 0.123D+01 0.133D+01
 Coeff-Com: -0.121D+01-0.124D+01
 Coeff:     -0.111D+00-0.107D-01 0.160D+00 0.954D-01 0.428D+00-0.248D+00
 Coeff:     -0.271D+01 0.193D+01-0.174D+01 0.439D+00-0.942D+00 0.124D+01
 Coeff:      0.218D+01-0.243D+00 0.811D+00-0.366D+00 0.123D+01 0.133D+01
 Coeff:     -0.121D+01-0.124D+01
 Gap=     0.161 Goal=   None    Shift=    0.000
 RMSDP=2.93D-05 MaxDP=4.35D-04 DE=-3.20D-05 OVMax= 7.45D-04

 Cycle  42  Pass 1  IDiag  3:
 E=  2.16288901581902     Delta-E=        0.000001647867 Rises=F Damp=F
 DIIS: error= 2.20D-04 at cycle  42 NSaved=  20.
 NSaved=20 IEnMin= 8 EnMin=  2.16257158960389     IErMin=14 ErrMin= 1.61D-04
 ErrMax= 2.20D-04  0.00D+00 EMaxC= 1.00D+00 BMatC= 1.90D-06 BMatP= 8.63D-07
 IDIUse=1 WtCom= 1.00D+00 WtEn= 0.00D+00
 Coeff-Com: -0.172D+00-0.138D-01 0.314D+00-0.310D-01 0.424D+00-0.535D+00
 Coeff-Com: -0.386D+01 0.401D+01-0.268D+01 0.543D+00-0.733D+00 0.111D+01
 Coeff-Com:  0.203D+01-0.375D+00 0.405D+01-0.540D+00 0.286D+01 0.229D+01
 Coeff-Com: -0.275D+01-0.494D+01
 Coeff:     -0.172D+00-0.138D-01 0.314D+00-0.310D-01 0.424D+00-0.535D+00
 Coeff:     -0.386D+01 0.401D+01-0.268D+01 0.543D+00-0.733D+00 0.111D+01
 Coeff:      0.203D+01-0.375D+00 0.405D+01-0.540D+00 0.286D+01 0.229D+01
 Coeff:     -0.275D+01-0.494D+01
 Gap=     0.161 Goal=   None    Shift=    0.000
 RMSDP=2.82D-04 MaxDP=5.40D-03 DE= 1.65D-06 OVMax= 1.49D-02

 Cycle  43  Pass 1  IDiag  3:
 E=  2.16282953447137     Delta-E=       -0.000059481348 Rises=F Damp=F
 DIIS: error= 2.37D-04 at cycle  43 NSaved=  20.
 NSaved=20 IEnMin= 8 EnMin=  2.16257158960389     IErMin=14 ErrMin= 1.61D-04
 ErrMax= 2.37D-04  0.00D+00 EMaxC= 1.00D+00 BMatC= 2.20D-06 BMatP= 8.63D-07
 IDIUse=1 WtCom= 1.00D+00 WtEn= 0.00D+00
 Coeff-Com: -0.107D+00-0.528D-01 0.235D+00 0.482D-01 0.430D+00-0.580D+00
 Coeff-Com: -0.348D+01 0.346D+01-0.245D+01 0.709D+00-0.853D+00 0.117D+01
 Coeff-Com:  0.210D+01-0.339D+00 0.299D+01-0.900D+00 0.135D+01 0.444D+00
 Coeff-Com: -0.397D+01 0.800D+00
 Coeff:     -0.107D+00-0.528D-01 0.235D+00 0.482D-01 0.430D+00-0.580D+00
 Coeff:     -0.348D+01 0.346D+01-0.245D+01 0.709D+00-0.853D+00 0.117D+01
 Coeff:      0.210D+01-0.339D+00 0.299D+01-0.900D+00 0.135D+01 0.444D+00
 Coeff:     -0.397D+01 0.800D+00
 Gap=     0.161 Goal=   None    Shift=    0.000
 RMSDP=7.23D-05 MaxDP=1.35D-03 DE=-5.95D-05 OVMax= 3.12D-03

 Cycle  44  Pass 1  IDiag  3:
 E=  2.16281608217241     Delta-E=       -0.000013452299 Rises=F Damp=F
 DIIS: error= 2.18D-04 at cycle  44 NSaved=  20.
 NSaved=20 IEnMin= 8 EnMin=  2.16257158960389     IErMin=14 ErrMin= 1.61D-04
 ErrMax= 2.18D-04  0.00D+00 EMaxC= 1.00D+00 BMatC= 1.81D-06 BMatP= 8.63D-07
 IDIUse=1 WtCom= 1.00D+00 WtEn= 0.00D+00
 Coeff-Com: -0.155D-01-0.649D-01 0.512D-01 0.149D+00 0.501D+00-0.373D+00
 Coeff-Com: -0.241D+01 0.150D+01-0.161D+01 0.750D+00-0.126D+01 0.126D+01
 Coeff-Com:  0.261D+01-0.383D+00 0.524D-02-0.829D+00 0.514D-01-0.698D+00
 Coeff-Com:  0.406D+00 0.137D+01
 Coeff:     -0.155D-01-0.649D-01 0.512D-01 0.149D+00 0.501D+00-0.373D+00
 Coeff:     -0.241D+01 0.150D+01-0.161D+01 0.750D+00-0.126D+01 0.126D+01
 Coeff:      0.261D+01-0.383D+00 0.524D-02-0.829D+00 0.514D-01-0.698D+00
 Coeff:      0.406D+00 0.137D+01
 Gap=     0.161 Goal=   None    Shift=    0.000
 RMSDP=2.51D-05 MaxDP=4.04D-04 DE=-1.35D-05 OVMax= 9.58D-04

 Cycle  45  Pass 1  IDiag  3:
 E=  2.16281173936147     Delta-E=       -0.000004342811 Rises=F Damp=F
 DIIS: error= 1.94D-04 at cycle  45 NSaved=  20.
 NSaved=20 IEnMin= 8 EnMin=  2.16257158960389     IErMin=14 ErrMin= 1.61D-04
 ErrMax= 1.94D-04  0.00D+00 EMaxC= 1.00D+00 BMatC= 1.50D-06 BMatP= 8.63D-07
 IDIUse=1 WtCom= 1.00D+00 WtEn= 0.00D+00
 Coeff-Com: -0.474D-01-0.691D-01 0.123D+00 0.127D+00 0.520D+00-0.500D+00
 Coeff-Com: -0.271D+01 0.190D+01-0.184D+01 0.888D+00-0.141D+01 0.142D+01
 Coeff-Com:  0.297D+01-0.462D+00 0.406D+00-0.117D+01-0.633D+00 0.363D+00
 Coeff-Com:  0.254D+01-0.142D+01
 Coeff:     -0.474D-01-0.691D-01 0.123D+00 0.127D+00 0.520D+00-0.500D+00
 Coeff:     -0.271D+01 0.190D+01-0.184D+01 0.888D+00-0.141D+01 0.142D+01
 Coeff:      0.297D+01-0.462D+00 0.406D+00-0.117D+01-0.633D+00 0.363D+00
 Coeff:      0.254D+01-0.142D+01
 Gap=     0.161 Goal=   None    Shift=    0.000
 RMSDP=1.12D-04 MaxDP=2.23D-03 DE=-4.34D-06 OVMax= 5.85D-03

 Cycle  46  Pass 1  IDiag  3:
 E=  2.16278883636437     Delta-E=       -0.000022902997 Rises=F Damp=F
 DIIS: error= 1.97D-04 at cycle  46 NSaved=  20.
 NSaved=20 IEnMin= 8 EnMin=  2.16257158960389     IErMin=14 ErrMin= 1.61D-04
 ErrMax= 1.97D-04  0.00D+00 EMaxC= 1.00D+00 BMatC= 1.54D-06 BMatP= 8.63D-07
 IDIUse=1 WtCom= 1.00D+00 WtEn= 0.00D+00
 Coeff-Com: -0.606D-01-0.528D-01 0.134D+00 0.126D+00 0.553D+00-0.482D+00
 Coeff-Com: -0.279D+01 0.206D+01-0.215D+01 0.938D+00-0.148D+01 0.155D+01
 Coeff-Com:  0.327D+01-0.478D+00-0.535D+00-0.111D+01-0.903D-01 0.240D+01
 Coeff-Com: -0.234D+01 0.154D+01
 Coeff:     -0.606D-01-0.528D-01 0.134D+00 0.126D+00 0.553D+00-0.482D+00
 Coeff:     -0.279D+01 0.206D+01-0.215D+01 0.938D+00-0.148D+01 0.155D+01
 Coeff:      0.327D+01-0.478D+00-0.535D+00-0.111D+01-0.903D-01 0.240D+01
 Coeff:     -0.234D+01 0.154D+01
 Gap=     0.161 Goal=   None    Shift=    0.000
 RMSDP=2.24D-04 MaxDP=4.44D-03 DE=-2.29D-05 OVMax= 1.19D-02

 Cycle  47  Pass 1  IDiag  3:
 E=  2.16274350409788     Delta-E=       -0.000045332266 Rises=F Damp=F
 DIIS: error= 2.07D-04 at cycle  47 NSaved=  20.
 NSaved=20 IEnMin= 8 EnMin=  2.16257158960389     IErMin=14 ErrMin= 1.61D-04
 ErrMax= 2.07D-04  0.00D+00 EMaxC= 1.00D+00 BMatC= 1.73D-06 BMatP= 8.63D-07
 IDIUse=1 WtCom= 1.00D+00 WtEn= 0.00D+00
 Coeff-Com: -0.784D-01-0.302D-02 0.117D+00 0.134D+00 0.575D+00-0.470D+00
 Coeff-Com: -0.295D+01 0.204D+01-0.200D+01 0.100D+01-0.170D+01 0.172D+01
 Coeff-Com:  0.362D+01-0.555D+00-0.185D+01-0.305D+00 0.219D+01-0.216D+01
 Coeff-Com:  0.123D+01 0.428D+00
 Coeff:     -0.784D-01-0.302D-02 0.117D+00 0.134D+00 0.575D+00-0.470D+00
 Coeff:     -0.295D+01 0.204D+01-0.200D+01 0.100D+01-0.170D+01 0.172D+01
 Coeff:      0.362D+01-0.555D+00-0.185D+01-0.305D+00 0.219D+01-0.216D+01
 Coeff:      0.123D+01 0.428D+00
 Gap=     0.162 Goal=   None    Shift=    0.000
 RMSDP=2.96D-04 MaxDP=5.86D-03 DE=-4.53D-05 OVMax= 1.58D-02

 Cycle  48  Pass 1  IDiag  3:
 E=  2.16268242290187     Delta-E=       -0.000061081196 Rises=F Damp=F
 DIIS: error= 2.17D-04 at cycle  48 NSaved=  20.
 NSaved=20 IEnMin= 8 EnMin=  2.16257158960389     IErMin=13 ErrMin= 1.62D-04
 ErrMax= 2.17D-04  0.00D+00 EMaxC= 1.00D+00 BMatC= 1.90D-06 BMatP= 8.63D-07
 IDIUse=1 WtCom= 1.00D+00 WtEn= 0.00D+00
 Coeff-Com: -0.610D-01-0.253D-01 0.676D-01 0.226D+00 0.488D+00-0.150D+00
 Coeff-Com: -0.193D+01 0.105D+01-0.763D+00-0.133D+00-0.156D+01 0.924D+00
 Coeff-Com:  0.353D+01-0.198D+01-0.279D+00 0.127D+01-0.151D+01 0.130D+01
 Coeff-Com:  0.379D+00 0.161D+00
 Coeff:     -0.610D-01-0.253D-01 0.676D-01 0.226D+00 0.488D+00-0.150D+00
 Coeff:     -0.193D+01 0.105D+01-0.763D+00-0.133D+00-0.156D+01 0.924D+00
 Coeff:      0.353D+01-0.198D+01-0.279D+00 0.127D+01-0.151D+01 0.130D+01
 Coeff:      0.379D+00 0.161D+00
 Gap=     0.162 Goal=   None    Shift=    0.000
 RMSDP=8.61D-05 MaxDP=1.71D-03 DE=-6.11D-05 OVMax= 4.48D-03

 Cycle  49  Pass 1  IDiag  3:
 E=  2.16266230404437     Delta-E=       -0.000020118857 Rises=F Damp=F
 DIIS: error= 1.89D-04 at cycle  49 NSaved=  20.
 NSaved=20 IEnMin= 8 EnMin=  2.16257158960389     IErMin=13 ErrMin= 1.62D-04
 ErrMax= 1.89D-04  0.00D+00 EMaxC= 1.00D+00 BMatC= 1.42D-06 BMatP= 8.63D-07
 IDIUse=1 WtCom= 1.00D+00 WtEn= 0.00D+00
 Coeff-Com: -0.885D-01-0.156D-01 0.778D-01 0.172D+00 0.424D+00-0.522D-01
 Coeff-Com: -0.181D+01 0.111D+01-0.904D+00-0.175D+00-0.129D+01 0.659D+00
 Coeff-Com:  0.289D+01-0.418D+00 0.321D+00-0.152D+01 0.755D+00 0.408D+00
 Coeff-Com:  0.201D+00 0.256D+00
 Coeff:     -0.885D-01-0.156D-01 0.778D-01 0.172D+00 0.424D+00-0.522D-01
 Coeff:     -0.181D+01 0.111D+01-0.904D+00-0.175D+00-0.129D+01 0.659D+00
 Coeff:      0.289D+01-0.418D+00 0.321D+00-0.152D+01 0.755D+00 0.408D+00
 Coeff:      0.201D+00 0.256D+00
 Gap=     0.161 Goal=   None    Shift=    0.000
 RMSDP=4.54D-04 MaxDP=8.83D-03 DE=-2.01D-05 OVMax= 2.42D-02

 Cycle  50  Pass 1  IDiag  3:
 E=  2.16275643323979     Delta-E=        0.000094129195 Rises=F Damp=F
 DIIS: error= 1.53D-04 at cycle  50 NSaved=  20.
 NSaved=20 IEnMin= 8 EnMin=  2.16257158960389     IErMin=20 ErrMin= 1.53D-04
 ErrMax= 1.53D-04  0.00D+00 EMaxC= 1.00D+00 BMatC= 1.14D-06 BMatP= 8.63D-07
 IDIUse=1 WtCom= 1.00D+00 WtEn= 0.00D+00
 Coeff-Com: -0.102D+00 0.771D-02 0.534D-01 0.177D+00 0.440D+00 0.709D-02
 Coeff-Com: -0.172D+01 0.899D+00-0.711D+00-0.368D+00-0.121D+01 0.654D+00
 Coeff-Com:  0.277D+01-0.314D+00-0.109D+01 0.410D+00 0.490D+00 0.273D+00
 Coeff-Com: -0.937D-02 0.333D+00
 Coeff:     -0.102D+00 0.771D-02 0.534D-01 0.177D+00 0.440D+00 0.709D-02
 Coeff:     -0.172D+01 0.899D+00-0.711D+00-0.368D+00-0.121D+01 0.654D+00
 Coeff:      0.277D+01-0.314D+00-0.109D+01 0.410D+00 0.490D+00 0.273D+00
 Coeff:     -0.937D-02 0.333D+00
 Gap=     0.161 Goal=   None    Shift=    0.000
 RMSDP=1.30D-04 MaxDP=2.57D-03 DE= 9.41D-05 OVMax= 6.79D-03

 Cycle  51  Pass 1  IDiag  3:
 E=  2.16278263022309     Delta-E=        0.000026196983 Rises=F Damp=F
 DIIS: error= 1.52D-04 at cycle  51 NSaved=  20.
 NSaved=20 IEnMin= 8 EnMin=  2.16257158960389     IErMin=20 ErrMin= 1.52D-04
 ErrMax= 1.52D-04  0.00D+00 EMaxC= 1.00D+00 BMatC= 1.03D-06 BMatP= 8.63D-07
 IDIUse=1 WtCom= 1.00D+00 WtEn= 0.00D+00
 Coeff-Com: -0.110D+00 0.118D-01 0.706D-01 0.176D+00 0.464D+00-0.561D-01
 Coeff-Com: -0.186D+01 0.108D+01-0.744D+00-0.366D+00-0.130D+01 0.710D+00
 Coeff-Com:  0.300D+01-0.147D+01 0.483D+00 0.515D+00 0.271D+00 0.188D-01
 Coeff-Com:  0.362D+00-0.246D+00
 Coeff:     -0.110D+00 0.118D-01 0.706D-01 0.176D+00 0.464D+00-0.561D-01
 Coeff:     -0.186D+01 0.108D+01-0.744D+00-0.366D+00-0.130D+01 0.710D+00
 Coeff:      0.300D+01-0.147D+01 0.483D+00 0.515D+00 0.271D+00 0.188D-01
 Coeff:      0.362D+00-0.246D+00
 Gap=     0.161 Goal=   None    Shift=    0.000
 RMSDP=6.62D-05 MaxDP=1.27D-03 DE= 2.62D-05 OVMax= 3.52D-03

 Cycle  52  Pass 1  IDiag  3:
 E=  2.16276885586797     Delta-E=       -0.000013774355 Rises=F Damp=F
 DIIS: error= 1.51D-04 at cycle  52 NSaved=  20.
 NSaved=20 IEnMin= 8 EnMin=  2.16257158960389     IErMin=20 ErrMin= 1.51D-04
 ErrMax= 1.51D-04  0.00D+00 EMaxC= 1.00D+00 BMatC= 1.01D-06 BMatP= 8.63D-07
 IDIUse=1 WtCom= 1.00D+00 WtEn= 0.00D+00
 Coeff-Com: -0.876D-01 0.199D-01 0.162D-01 0.189D+00 0.425D+00-0.664D-01
 Coeff-Com: -0.135D+01 0.621D+00-0.673D+00-0.327D+00-0.120D+01 0.574D+00
 Coeff-Com:  0.254D+01-0.881D+00 0.396D+00 0.230D+00-0.242D+00 0.255D+00
 Coeff-Com: -0.788D+00 0.134D+01
 Coeff:     -0.876D-01 0.199D-01 0.162D-01 0.189D+00 0.425D+00-0.664D-01
 Coeff:     -0.135D+01 0.621D+00-0.673D+00-0.327D+00-0.120D+01 0.574D+00
 Coeff:      0.254D+01-0.881D+00 0.396D+00 0.230D+00-0.242D+00 0.255D+00
 Coeff:     -0.788D+00 0.134D+01
 Gap=     0.161 Goal=   None    Shift=    0.000
 RMSDP=3.91D-04 MaxDP=7.49D-03 DE=-1.38D-05 OVMax= 2.08D-02

 Cycle  53  Pass 1  IDiag  3:
 E=  2.16285113890910     Delta-E=        0.000082283041 Rises=F Damp=F
 DIIS: error= 1.62D-04 at cycle  53 NSaved=  20.
 NSaved=20 IEnMin= 7 EnMin=  2.16257158960389     IErMin=19 ErrMin= 1.51D-04
 ErrMax= 1.62D-04  0.00D+00 EMaxC= 1.00D+00 BMatC= 1.26D-06 BMatP= 8.63D-07
 IDIUse=1 WtCom= 1.00D+00 WtEn= 0.00D+00
 Coeff-Com: -0.148D+00 0.813D-01 0.234D+00 0.447D+00-0.915D-01-0.132D+01
 Coeff-Com:  0.328D+00-0.522D+00-0.313D+00-0.117D+01 0.653D+00 0.235D+01
 Coeff-Com: -0.471D+00 0.128D+00 0.138D+00-0.140D+00 0.924D+00-0.413D+00
 Coeff-Com:  0.149D+01-0.118D+01
 Coeff:     -0.148D+00 0.813D-01 0.234D+00 0.447D+00-0.915D-01-0.132D+01
 Coeff:      0.328D+00-0.522D+00-0.313D+00-0.117D+01 0.653D+00 0.235D+01
 Coeff:     -0.471D+00 0.128D+00 0.138D+00-0.140D+00 0.924D+00-0.413D+00
 Coeff:      0.149D+01-0.118D+01
 Gap=     0.161 Goal=   None    Shift=    0.000
 RMSDP=3.11D-04 MaxDP=5.92D-03 DE= 8.23D-05 OVMax= 1.65D-02

 Cycle  54  Pass 1  IDiag  3:
 E=  2.16278625296241     Delta-E=       -0.000064885947 Rises=F Damp=F
 DIIS: error= 1.61D-04 at cycle  54 NSaved=  20.
 NSaved=20 IEnMin= 7 EnMin=  2.16257158960389     IErMin=18 ErrMin= 1.51D-04
 ErrMax= 1.61D-04  0.00D+00 EMaxC= 1.00D+00 BMatC= 1.17D-06 BMatP= 8.63D-07
 IDIUse=1 WtCom= 1.00D+00 WtEn= 0.00D+00
 Coeff-Com: -0.139D+00 0.730D-01 0.231D+00 0.493D+00-0.103D+00-0.137D+01
 Coeff-Com:  0.329D+00-0.646D+00-0.191D+00-0.110D+01 0.589D+00 0.224D+01
 Coeff-Com: -0.578D-01 0.819D-01-0.210D+00 0.913D+00-0.462D+00 0.215D+01
 Coeff-Com: -0.102D+01-0.794D+00
 Coeff:     -0.139D+00 0.730D-01 0.231D+00 0.493D+00-0.103D+00-0.137D+01
 Coeff:      0.329D+00-0.646D+00-0.191D+00-0.110D+01 0.589D+00 0.224D+01
 Coeff:     -0.578D-01 0.819D-01-0.210D+00 0.913D+00-0.462D+00 0.215D+01
 Coeff:     -0.102D+01-0.794D+00
 Gap=     0.161 Goal=   None    Shift=    0.000
 RMSDP=1.82D-04 MaxDP=3.51D-03 DE=-6.49D-05 OVMax= 9.70D-03

 Cycle  55  Pass 1  IDiag  3:
 E=  2.16282433216747     Delta-E=        0.000038079205 Rises=F Damp=F
 DIIS: error= 1.75D-04 at cycle  55 NSaved=  20.
 NSaved=20 IEnMin= 7 EnMin=  2.16257158960389     IErMin=18 ErrMin= 1.51D-04
 ErrMax= 1.75D-04  0.00D+00 EMaxC= 1.00D+00 BMatC= 1.30D-06 BMatP= 8.63D-07
 IDIUse=1 WtCom= 1.00D+00 WtEn= 0.00D+00
 Coeff-Com: -0.101D+00 0.320D-01 0.181D+00 0.411D+00 0.166D-01-0.892D+00
 Coeff-Com: -0.186D+00-0.801D+00-0.192D+00-0.961D+00 0.627D+00 0.206D+01
 Coeff-Com: -0.867D-01 0.144D+00 0.387D-01 0.697D+00-0.540D+00 0.286D+01
 Coeff-Com: -0.102D+01-0.129D+01
 Coeff:     -0.101D+00 0.320D-01 0.181D+00 0.411D+00 0.166D-01-0.892D+00
 Coeff:     -0.186D+00-0.801D+00-0.192D+00-0.961D+00 0.627D+00 0.206D+01
 Coeff:     -0.867D-01 0.144D+00 0.387D-01 0.697D+00-0.540D+00 0.286D+01
 Coeff:     -0.102D+01-0.129D+01
 Gap=     0.161 Goal=   None    Shift=    0.000
 RMSDP=4.95D-05 MaxDP=9.68D-04 DE= 3.81D-05 OVMax= 2.51D-03

 Cycle  56  Pass 1  IDiag  3:
 E=  2.16283430998271     Delta-E=        0.000009977815 Rises=F Damp=F
 DIIS: error= 1.75D-04 at cycle  56 NSaved=  20.
 NSaved=20 IEnMin= 7 EnMin=  2.16257158960389     IErMin=18 ErrMin= 1.51D-04
 ErrMax= 1.75D-04  0.00D+00 EMaxC= 1.00D+00 BMatC= 1.31D-06 BMatP= 8.63D-07
 IDIUse=1 WtCom= 1.00D+00 WtEn= 0.00D+00
 Coeff-Com: -0.461D-01-0.236D-01 0.225D+00 0.177D+00 0.115D+00 0.226D+00
 Coeff-Com: -0.140D+01-0.584D+00-0.335D+00-0.900D+00 0.675D+00 0.196D+01
 Coeff-Com:  0.296D+00 0.265D+00 0.351D+00 0.882D+00-0.581D+00 0.352D+01
 Coeff-Com: -0.902D+00-0.291D+01
 Coeff:     -0.461D-01-0.236D-01 0.225D+00 0.177D+00 0.115D+00 0.226D+00
 Coeff:     -0.140D+01-0.584D+00-0.335D+00-0.900D+00 0.675D+00 0.196D+01
 Coeff:      0.296D+00 0.265D+00 0.351D+00 0.882D+00-0.581D+00 0.352D+01
 Coeff:     -0.902D+00-0.291D+01
 Gap=     0.161 Goal=   None    Shift=    0.000
 RMSDP=8.99D-04 MaxDP=1.73D-02 DE= 9.98D-06 OVMax= 4.80D-02

 Cycle  57  Pass 1  IDiag  3:
 E=  2.16265165271193     Delta-E=       -0.000182657271 Rises=F Damp=F
 DIIS: error= 2.01D-04 at cycle  57 NSaved=  20.
 NSaved=20 IEnMin= 7 EnMin=  2.16257158960389     IErMin=18 ErrMin= 1.51D-04
 ErrMax= 2.01D-04  0.00D+00 EMaxC= 1.00D+00 BMatC= 2.60D-06 BMatP= 8.63D-07
 IDIUse=1 WtCom= 1.00D+00 WtEn= 0.00D+00
 Coeff-Com: -0.324D-01-0.677D-01 0.275D+00 0.198D+00 0.535D-01 0.188D+00
 Coeff-Com: -0.116D+01-0.632D+00-0.311D+00-0.923D+00 0.562D+00 0.205D+01
 Coeff-Com:  0.477D+00 0.299D+00 0.218D+00 0.511D+00-0.852D+00 0.368D+01
 Coeff-Com: -0.336D+01-0.166D+00
 Coeff:     -0.324D-01-0.677D-01 0.275D+00 0.198D+00 0.535D-01 0.188D+00
 Coeff:     -0.116D+01-0.632D+00-0.311D+00-0.923D+00 0.562D+00 0.205D+01
 Coeff:      0.477D+00 0.299D+00 0.218D+00 0.511D+00-0.852D+00 0.368D+01
 Coeff:     -0.336D+01-0.166D+00
 Gap=     0.162 Goal=   None    Shift=    0.000
 RMSDP=1.32D-04 MaxDP=2.59D-03 DE=-1.83D-04 OVMax= 6.91D-03

 Cycle  58  Pass 1  IDiag  3:
 E=  2.16267502282483     Delta-E=        0.000023370113 Rises=F Damp=F
 DIIS: error= 2.04D-04 at cycle  58 NSaved=  20.
 NSaved=20 IEnMin= 7 EnMin=  2.16257158960389     IErMin=18 ErrMin= 1.51D-04
 ErrMax= 2.04D-04  0.00D+00 EMaxC= 1.00D+00 BMatC= 1.61D-06 BMatP= 8.63D-07
 IDIUse=1 WtCom= 1.00D+00 WtEn= 0.00D+00
 Coeff-Com: -0.886D-01-0.297D-01 0.245D+00 0.472D+00-0.110D+00-0.109D+01
 Coeff-Com:  0.455D+00-0.831D+00-0.170D+00-0.102D+01 0.478D+00 0.213D+01
 Coeff-Com:  0.184D+00 0.180D+00-0.138D+00 0.128D+00-0.110D+01 0.210D+01
 Coeff-Com: -0.168D+00-0.629D+00
 Coeff:     -0.886D-01-0.297D-01 0.245D+00 0.472D+00-0.110D+00-0.109D+01
 Coeff:      0.455D+00-0.831D+00-0.170D+00-0.102D+01 0.478D+00 0.213D+01
 Coeff:      0.184D+00 0.180D+00-0.138D+00 0.128D+00-0.110D+01 0.210D+01
 Coeff:     -0.168D+00-0.629D+00
 Gap=     0.160 Goal=   None    Shift=    0.000
 RMSDP=1.34D-03 MaxDP=2.56D-02 DE= 2.34D-05 OVMax= 7.14D-02

 Cycle  59  Pass 1  IDiag  3:
 E=  2.16296838883659     Delta-E=        0.000293366012 Rises=F Damp=F
 DIIS: error= 2.62D-04 at cycle  59 NSaved=  20.
 NSaved=20 IEnMin= 7 EnMin=  2.16257158960389     IErMin=17 ErrMin= 1.51D-04
 ErrMax= 2.62D-04  0.00D+00 EMaxC= 1.00D+00 BMatC= 3.76D-06 BMatP= 8.63D-07
 IDIUse=1 WtCom= 1.00D+00 WtEn= 0.00D+00
 Coeff-Com: -0.265D-02-0.972D-01 0.290D+00 0.162D+00 0.240D+00 0.208D+00
 Coeff-Com: -0.182D+01 0.401D+00-0.275D+00-0.873D+00 0.422D+00 0.117D+01
 Coeff-Com:  0.382D+00 0.258D+00 0.322D+00 0.584D+00 0.128D+01-0.155D+01
 Coeff-Com:  0.967D+00-0.108D+01
 Coeff:     -0.265D-02-0.972D-01 0.290D+00 0.162D+00 0.240D+00 0.208D+00
 Coeff:     -0.182D+01 0.401D+00-0.275D+00-0.873D+00 0.422D+00 0.117D+01
 Coeff:      0.382D+00 0.258D+00 0.322D+00 0.584D+00 0.128D+01-0.155D+01
 Coeff:      0.967D+00-0.108D+01
 Gap=     0.161 Goal=   None    Shift=    0.000
 RMSDP=9.97D-04 MaxDP=1.91D-02 DE= 2.93D-04 OVMax= 5.33D-02

 Cycle  60  Pass 1  IDiag  3:
 E=  2.16274836528407     Delta-E=       -0.000220023553 Rises=F Damp=F
 DIIS: error= 2.21D-04 at cycle  60 NSaved=  20.
 NSaved=20 IEnMin= 7 EnMin=  2.16257158960389     IErMin=16 ErrMin= 1.53D-04
 ErrMax= 2.21D-04  0.00D+00 EMaxC= 1.00D+00 BMatC= 1.92D-06 BMatP= 8.63D-07
 IDIUse=1 WtCom= 1.00D+00 WtEn= 0.00D+00
 Coeff-Com: -0.260D-01-0.517D-01 0.242D+00 0.303D+00 0.121D+00-0.721D+00
 Coeff-Com: -0.679D+00 0.364D+00-0.388D+00-0.117D+01 0.539D+00 0.186D+01
 Coeff-Com:  0.509D+00 0.281D+00 0.261D+00 0.840D+00-0.132D+01 0.700D+00
 Coeff-Com: -0.115D+01 0.481D+00
 Coeff:     -0.260D-01-0.517D-01 0.242D+00 0.303D+00 0.121D+00-0.721D+00
 Coeff:     -0.679D+00 0.364D+00-0.388D+00-0.117D+01 0.539D+00 0.186D+01
 Coeff:      0.509D+00 0.281D+00 0.261D+00 0.840D+00-0.132D+01 0.700D+00
 Coeff:     -0.115D+01 0.481D+00
 Gap=     0.162 Goal=   None    Shift=    0.000
 RMSDP=3.50D-04 MaxDP=6.86D-03 DE=-2.20D-04 OVMax= 1.85D-02

 Cycle  61  Pass 1  IDiag  3:
 E=  2.16267541209129     Delta-E=       -0.000072953193 Rises=F Damp=F
 DIIS: error= 2.37D-04 at cycle  61 NSaved=  20.
 NSaved=20 IEnMin= 7 EnMin=  2.16257158960389     IErMin=16 ErrMin= 1.53D-04
 ErrMax= 2.37D-04  0.00D+00 EMaxC= 1.00D+00 BMatC= 2.04D-06 BMatP= 8.63D-07
 IDIUse=1 WtCom= 1.00D+00 WtEn= 0.00D+00
 Coeff-Com: -0.126D+00 0.111D-01 0.272D+00 0.496D+00-0.609D-01-0.147D+01
 Coeff-Com:  0.514D+00-0.462D+00-0.342D+00-0.119D+01 0.568D+00 0.255D+01
 Coeff-Com:  0.356D+00 0.278D+00-0.149D+00 0.226D+00-0.229D+00 0.607D+00
 Coeff-Com: -0.530D+00-0.323D+00
 Coeff:     -0.126D+00 0.111D-01 0.272D+00 0.496D+00-0.609D-01-0.147D+01
 Coeff:      0.514D+00-0.462D+00-0.342D+00-0.119D+01 0.568D+00 0.255D+01
 Coeff:      0.356D+00 0.278D+00-0.149D+00 0.226D+00-0.229D+00 0.607D+00
 Coeff:     -0.530D+00-0.323D+00
 Gap=     0.161 Goal=   None    Shift=    0.000
 RMSDP=9.43D-04 MaxDP=1.81D-02 DE=-7.30D-05 OVMax= 5.04D-02

 Cycle  62  Pass 1  IDiag  3:
 E=  2.16287130449950     Delta-E=        0.000195892408 Rises=F Damp=F
 DIIS: error= 1.81D-04 at cycle  62 NSaved=  20.
 NSaved=20 IEnMin= 7 EnMin=  2.16257158960389     IErMin=12 ErrMin= 1.62D-04
 ErrMax= 1.81D-04  0.00D+00 EMaxC= 1.00D+00 BMatC= 2.03D-06 BMatP= 8.63D-07
[...]
 Gradient too large for Newton-Raphson -- use scaled steepest descent instead.
 Alpha Gap=     0.177 HL deriv= 8.49D-05
     ILin= 1 X=0.000D+00 Y= 2.157615531939D+00 DE= 0.00D+00 F= -3.30D-03
     ILin= 2 X=5.000D-01 Y= 2.156406041958D+00 DE=-1.21D-03 F= -1.54D-03 OKLS=F
     ILin= 3 X=1.100D+00 Y= 2.156101910934D+00 DE=-1.51D-03 F=  5.22D-04
     Accept linear search using points  2 and  3.
     An  expanding polynomial of degree  3 produced  0.8644
 Iteration   5 EE=  2.15607372425859     Delta-E=       -0.001541807680 Grad=1.022D-02 Max rot=    0.1864 deg.
 Gradient too large for Newton-Raphson -- use scaled steepest descent instead.
 Alpha Gap=     0.174 HL deriv= 7.51D-04
     ILin= 1 X=0.000D+00 Y= 2.156073724259D+00 DE= 0.00D+00 F= -6.49D-04
     ILin= 2 X=9.000D-01 Y= 2.155570224781D+00 DE=-5.03D-04 F= -4.68D-04 OKLS=F
     ILin= 3 X=1.800D+00 Y= 2.155235589237D+00 DE=-8.38D-04 F= -2.73D-04
     Reject lnstep IMin12=  2  3 Big=T Turn=F Min= 3.361D+00 FVal= 2.154862681386D+00 Lims=  9.00D-01  1.80D+00
     ILin= 4 X=3.600D+00 Y= 2.155122579755D+00 DE=-9.51D-04 F=  1.57D-04
     Accept linear search using points  3 and  4.
     An  expanding polynomial of degree  4 produced  3.1990
 Iteration   6 EE=  2.15507983235045     Delta-E=       -0.000993891908 Grad=2.202D-02 Max rot=    0.2501 deg.
 Gradient too large for Newton-Raphson -- use scaled steepest descent instead.
 Alpha Gap=     0.177 HL deriv= 6.43D-04
     ILin= 1 X=0.000D+00 Y= 2.155079832350D+00 DE= 0.00D+00 F= -1.89D-03
     ILin= 2 X=1.700D+00 Y= 2.155104749380D+00 DE= 2.49D-05 F=  1.89D-03 OKLS=T
     Reject lnstep IMin12=  1  2 Big=F Turn=F Min= 8.336D-01 FVal= 2.154619410114D+00 Lims=  0.00D+00  1.70D+00
     ILin= 3 X=8.000D-01 Y= 2.154290251587D+00 DE=-7.90D-04 F= -9.03D-05
     A contracting polynomial of degree  3 produced  0.8434
     Minimum is close to point  3 DX=  4.34D-02 DF= -2.10D-06 DXR=  5.15D-02 DFR=  2.66D-03 which will be used.
 Iteration   7 EE=  2.15429025158664     Delta-E=       -0.000789580764 Grad=7.225D-03 Max rot=    0.1818 deg.
 QCNR:  CnvC1=6.26D-09 CnvC2=6.26D-08
 LinEq1:  Iter=  0 NonCon=     1 RMS=5.01D-04 Max=1.20D-02 NDo=     1
 LinEq1:  Iter=  1 NonCon=     1 RMS=1.99D-04 Max=2.72D-03 NDo=     1
 LinEq1:  Iter=  2 NonCon=     1 RMS=3.37D-05 Max=4.32D-04 NDo=     1
 LinEq1:  Iter=  3 NonCon=     1 RMS=6.35D-06 Max=8.64D-05 NDo=     1
 LinEq1:  Iter=  4 NonCon=     1 RMS=2.71D-06 Max=4.52D-05 NDo=     1
 LinEq1:  Iter=  5 NonCon=     1 RMS=1.10D-06 Max=1.78D-05 NDo=     1
 LinEq1:  Iter=  6 NonCon=     1 RMS=3.72D-07 Max=4.65D-06 NDo=     1
 LinEq1:  Iter=  7 NonCon=     1 RMS=1.09D-07 Max=1.54D-06 NDo=     1
 LinEq1:  Iter=  8 NonCon=     1 RMS=3.18D-08 Max=4.24D-07 NDo=     1
 LinEq1:  Iter=  9 NonCon=     1 RMS=8.34D-09 Max=9.10D-08 NDo=     1
 LinEq1:  Iter= 10 NonCon=     0 RMS=2.28D-09 Max=2.48D-08 NDo=     1
 Linear equations converged to 6.261D-09 6.261D-08 after    10 iterations.
 Angle between quadratic step and gradient=  33.77 degrees.
     ILin= 1 X=0.000D+00 Y= 2.154290251587D+00 DE= 0.00D+00 F= -8.54D-03
     ILin= 2 X=1.000D+00 Y= 2.158015878201D+00 DE= 3.73D-03 F=  2.40D-02 OKLS=T
     Reject lnstep IMin12=  1  2 Big=F Turn=F Min= 4.417D-01 FVal= 2.152135258583D+00 Lims=  0.00D+00  1.00D+00
     ILin= 3 X=4.000D-01 Y= 2.152017432516D+00 DE=-2.27D-03 F= -1.51D-03
     A contracting polynomial of degree  3 produced  0.3812
     Minimum is close to point  3 DX= -1.88D-02 DF= -5.55D-06 DXR=  4.93D-02 DFR=  2.44D-03 which will be used.
 Iteration   8 EE=  2.15201743251555     Delta-E=       -0.002272819071 Grad=6.496D-03 Max rot=    0.0966 deg.
 QCNR:  CnvC1=6.26D-09 CnvC2=6.26D-08
 LinEq1:  Iter=  0 NonCon=     1 RMS=2.49D-04 Max=3.67D-03 NDo=     1
 LinEq1:  Iter=  1 NonCon=     1 RMS=1.64D-04 Max=4.42D-03 NDo=     1
 LinEq1:  Iter=  2 NonCon=     1 RMS=4.31D-05 Max=6.62D-04 NDo=     1
 LinEq1:  Iter=  3 NonCon=     1 RMS=1.77D-05 Max=2.83D-04 NDo=     1
 LinEq1:  Iter=  4 NonCon=     1 RMS=3.96D-06 Max=5.31D-05 NDo=     1
 LinEq1:  Iter=  5 NonCon=     1 RMS=1.43D-06 Max=2.54D-05 NDo=     1
 LinEq1:  Iter=  6 NonCon=     1 RMS=4.69D-07 Max=6.22D-06 NDo=     1
 LinEq1:  Iter=  7 NonCon=     1 RMS=1.86D-07 Max=2.23D-06 NDo=     1
 LinEq1:  Iter=  8 NonCon=     1 RMS=6.72D-08 Max=8.14D-07 NDo=     1
 LinEq1:  Iter=  9 NonCon=     1 RMS=2.16D-08 Max=3.07D-07 NDo=     1
 LinEq1:  Iter= 10 NonCon=     0 RMS=5.84D-09 Max=5.56D-08 NDo=     1
 Linear equations converged to 6.261D-09 6.261D-08 after    10 iterations.
 Angle between quadratic step and gradient=  67.06 degrees.
     ILin= 1 X=0.000D+00 Y= 2.152017432516D+00 DE= 0.00D+00 F= -4.96D-04
     ILin= 2 X=1.000D+00 Y= 2.151762784037D+00 DE=-2.55D-04 F= -1.95D-05 OKLS=T
     Reject lnstep IMin12=  1  2 Big=T Turn=F Min= 1.043D+00 FVal= 2.151762370025D+00 Lims=  0.00D+00  1.00D+00
     ILin= 3 X=1.800D+00 Y= 2.151891325915D+00 DE=-1.26D-04 F=  3.38D-04
     An  expanding polynomial of degree  3 produced  1.0518
     Minimum is close to point  2 DX=  5.18D-02 DF= -6.20D-07 DXR=  4.93D-02 DFR=  2.43D-03 which will be used.
 Iteration   9 EE=  2.15176278403737     Delta-E=       -0.000254648478 Grad=5.341D-04 Max rot=    0.0066 deg.
 QCNR:  CnvC1=5.34D-09 CnvC2=5.34D-08
 LinEq1:  Iter=  0 NonCon=     1 RMS=2.67D-05 Max=6.70D-04 NDo=     1
 LinEq1:  Iter=  1 NonCon=     1 RMS=1.25D-05 Max=3.02D-04 NDo=     1
 LinEq1:  Iter=  2 NonCon=     1 RMS=4.17D-06 Max=4.24D-05 NDo=     1
 LinEq1:  Iter=  3 NonCon=     1 RMS=1.38D-06 Max=1.92D-05 NDo=     1
 LinEq1:  Iter=  4 NonCon=     1 RMS=3.98D-07 Max=4.61D-06 NDo=     1
 LinEq1:  Iter=  5 NonCon=     1 RMS=1.38D-07 Max=2.36D-06 NDo=     1
 LinEq1:  Iter=  6 NonCon=     1 RMS=3.65D-08 Max=6.94D-07 NDo=     1
 LinEq1:  Iter=  7 NonCon=     1 RMS=1.39D-08 Max=2.72D-07 NDo=     1
 LinEq1:  Iter=  8 NonCon=     0 RMS=4.62D-09 Max=5.07D-08 NDo=     1
 Linear equations converged to 5.341D-09 5.341D-08 after     8 iterations.
 Angle between quadratic step and gradient=  63.45 degrees.
     ILin= 1 X=0.000D+00 Y= 2.151762784037D+00 DE= 0.00D+00 F= -2.41D-06
     ILin= 2 X=1.000D+00 Y= 2.151761575030D+00 DE=-1.21D-06 F= -1.84D-08 OKLS=T
     Reject lnstep IMin12=  1  2 Big=T Turn=F Min= 1.008D+00 FVal= 2.151761574959D+00 Lims=  0.00D+00  1.00D+00
     ILin= 3 X=2.000D+00 Y= 2.151762732307D+00 DE=-5.17D-08 F=  2.33D-06
     An  expanding polynomial of degree  3 produced  1.0109
     Minimum is close to point  2 DX=  1.09D-02 DF= -1.41D-10 DXR=  1.08D-02 DFR=  1.17D-04 which will be used.
 Iteration  10 EE=  2.15176157503004     Delta-E=       -0.000001209007 Grad=2.150D-05 Max rot=    0.0002 deg.
 QCNR:  CnvC1=2.15D-10 CnvC2=2.15D-09
 LinEq1:  Iter=  0 NonCon=     1 RMS=6.75D-07 Max=6.77D-06 NDo=     1
 LinEq1:  Iter=  1 NonCon=     1 RMS=3.02D-07 Max=5.31D-06 NDo=     1
 LinEq1:  Iter=  2 NonCon=     1 RMS=1.24D-07 Max=2.67D-06 NDo=     1
 LinEq1:  Iter=  3 NonCon=     1 RMS=4.30D-08 Max=7.27D-07 NDo=     1
 LinEq1:  Iter=  4 NonCon=     1 RMS=1.61D-08 Max=2.17D-07 NDo=     1
 LinEq1:  Iter=  5 NonCon=     1 RMS=4.45D-09 Max=8.54D-08 NDo=     1
 LinEq1:  Iter=  6 NonCon=     1 RMS=1.68D-09 Max=2.60D-08 NDo=     1
 LinEq1:  Iter=  7 NonCon=     1 RMS=7.37D-10 Max=1.10D-08 NDo=     1
 LinEq1:  Iter=  8 NonCon=     1 RMS=3.15D-10 Max=8.21D-09 NDo=     1
 LinEq1:  Iter=  9 NonCon=     0 RMS=8.90D-11 Max=1.36D-09 NDo=     1
 Linear equations converged to 2.150D-10 2.150D-09 after     9 iterations.
 Angle between quadratic step and gradient=  65.07 degrees.
     ILin= 1 X=0.000D+00 Y= 2.151761575030D+00 DE= 0.00D+00 F= -3.03D-09
     ILin= 2 X=1.000D+00 Y= 2.151761573521D+00 DE=-1.51D-09
 Iteration  11 EE=  2.15176157352096     Delta-E=       -0.000000001509 Grad=5.970D-07 Max rot=    0.0000 deg.
 Rotation gradient small -- convergence achieved.
 SCF Done:  E(RPM6) =   2.15176157352     a.u. after   11 cycles
            Convg  =    0.5970D-06                    86 Fock formations.
              S**2 =  0.0000                  -V/T =  1.0098
 Leave Link  508 at Wed Jan 12 16:09:15 2022, MaxMem=   402653184 cpu:              11.5 elap:               0.3
 (Enter /work/01114/jfonner/frontera/gaussian/16rC.01/g16/l601.exe)
 Copying SCF densities to generalized density rwf, IOpCl= 0 IROHF=0.

 **********************************************************************

            Population analysis using the SCF Density.

 **********************************************************************

 Alpha  occ. eigenvalues --   -2.06653  -2.03948  -1.97848  -1.97622  -1.95884
 Alpha  occ. eigenvalues --   -1.92620  -1.88058  -1.87824  -1.87265  -1.80268
 Alpha  occ. eigenvalues --   -1.77212  -1.73974  -1.70424  -1.65199  -1.60107
 Alpha  occ. eigenvalues --   -1.57620  -1.53097  -1.51693  -1.48967  -1.44783
 Alpha  occ. eigenvalues --   -1.42484  -1.40759  -1.39280  -1.38874  -1.37580
 Alpha  occ. eigenvalues --   -1.36756  -1.36506  -1.35934  -1.35469  -1.33086
 Alpha  occ. eigenvalues --   -1.30909  -1.30317  -1.28317  -1.27579  -1.26246
 Alpha  occ. eigenvalues --   -1.25127  -1.22785  -1.22234  -1.21232  -1.18428
 Alpha  occ. eigenvalues --   -1.17839  -1.17761  -1.17609  -1.16038  -1.14276
 Alpha  occ. eigenvalues --   -1.13983  -1.12710  -1.11860  -1.11295
 Alpha virt. eigenvalues --   -0.95028  -0.94249  -0.89802  -0.88442  -0.85241
 Alpha virt. eigenvalues --   -0.82880  -0.82565  -0.80459  -0.78868  -0.78317
 Alpha virt. eigenvalues --   -0.77809  -0.76929  -0.76206  -0.75524  -0.75320
 Alpha virt. eigenvalues --   -0.74305  -0.73703  -0.72873  -0.72298  -0.71250
 Alpha virt. eigenvalues --   -0.70917  -0.70716  -0.70082  -0.68896  -0.68315
 Alpha virt. eigenvalues --   -0.68152  -0.66254  -0.66031  -0.65136  -0.64788
 Alpha virt. eigenvalues --   -0.64613  -0.64059  -0.63088  -0.61857  -0.61150
 Alpha virt. eigenvalues --   -0.60983  -0.60454  -0.59338  -0.57657  -0.54787
          Condensed to atoms (all electrons):
               1          2          3          4          5          6
     1  C    3.729574   0.000000   0.000000   0.000000   0.000000   0.000000
     2  O    0.000000   5.502710   0.000000   0.000000   0.000000   0.000000
     3  N    0.000000   0.000000   4.976510   0.000000   0.000000   0.000000
     4  C    0.000000   0.000000   0.000000   3.838884   0.000000   0.000000
     5  C    0.000000   0.000000   0.000000   0.000000   3.631720   0.000000
     6  O    0.000000   0.000000   0.000000   0.000000   0.000000   6.205824
     7  N    0.000000   0.000000   0.000000   0.000000   0.000000   0.000000
     8  C    0.000000   0.000000   0.000000   0.000000   0.000000   0.000000
     9  C    0.000000   0.000000   0.000000   0.000000   0.000000   0.000000
    10  O    0.000000   0.000000   0.000000   0.000000   0.000000   0.000000
    11  N    0.000000   0.000000   0.000000   0.000000   0.000000   0.000000
    12  C    0.000000   0.000000   0.000000   0.000000   0.000000   0.000000
    13  C    0.000000   0.000000   0.000000   0.000000   0.000000   0.000000
    14  O    0.000000   0.000000   0.000000   0.000000   0.000000   0.000000
    15  C    0.000000   0.000000   0.000000   0.000000   0.000000   0.000000
    16  C    0.000000   0.000000   0.000000   0.000000   0.000000   0.000000
    17  C    0.000000   0.000000   0.000000   0.000000   0.000000   0.000000
    18  C    0.000000   0.000000   0.000000   0.000000   0.000000   0.000000
    19  C    0.000000   0.000000   0.000000   0.000000   0.000000   0.000000
    20  O    0.000000   0.000000   0.000000   0.000000   0.000000   0.000000
    21  O    0.000000   0.000000   0.000000   0.000000   0.000000   0.000000
    22  C    0.000000   0.000000   0.000000   0.000000   0.000000   0.000000
    23  H    0.000000   0.000000   0.000000   0.000000   0.000000   0.000000
               7          8          9         10         11         12
     1  C    0.000000   0.000000   0.000000   0.000000   0.000000   0.000000
     2  O    0.000000   0.000000   0.000000   0.000000   0.000000   0.000000
     3  N    0.000000   0.000000   0.000000   0.000000   0.000000   0.000000
     4  C    0.000000   0.000000   0.000000   0.000000   0.000000   0.000000
     5  C    0.000000   0.000000   0.000000   0.000000   0.000000   0.000000
     6  O    0.000000   0.000000   0.000000   0.000000   0.000000   0.000000
     7  N    5.440925   0.000000   0.000000   0.000000   0.000000   0.000000
     8  C    0.000000   3.528707   0.000000   0.000000   0.000000   0.000000
     9  C    0.000000   0.000000   3.648157   0.000000   0.000000   0.000000
    10  O    0.000000   0.000000   0.000000   6.054934   0.000000   0.000000
    11  N    0.000000   0.000000   0.000000   0.000000   5.287089   0.000000
    12  C    0.000000   0.000000   0.000000   0.000000   0.000000   4.176259
    13  C    0.000000   0.000000   0.000000   0.000000   0.000000   0.000000
    14  O    0.000000   0.000000   0.000000   0.000000   0.000000   0.000000
    15  C    0.000000   0.000000   0.000000   0.000000   0.000000   0.000000
    16  C    0.000000   0.000000   0.000000   0.000000   0.000000   0.000000
    17  C    0.000000   0.000000   0.000000   0.000000   0.000000   0.000000
    18  C    0.000000   0.000000   0.000000   0.000000   0.000000   0.000000
    19  C    0.000000   0.000000   0.000000   0.000000   0.000000   0.000000
    20  O    0.000000   0.000000   0.000000   0.000000   0.000000   0.000000
    21  O    0.000000   0.000000   0.000000   0.000000   0.000000   0.000000
    22  C    0.000000   0.000000   0.000000   0.000000   0.000000   0.000000
    23  H    0.000000   0.000000   0.000000   0.000000   0.000000   0.000000
              13         14         15         16         17         18
     1  C    0.000000   0.000000   0.000000   0.000000   0.000000   0.000000
     2  O    0.000000   0.000000   0.000000   0.000000   0.000000   0.000000
     3  N    0.000000   0.000000   0.000000   0.000000   0.000000   0.000000
     4  C    0.000000   0.000000   0.000000   0.000000   0.000000   0.000000
     5  C    0.000000   0.000000   0.000000   0.000000   0.000000   0.000000
     6  O    0.000000   0.000000   0.000000   0.000000   0.000000   0.000000
     7  N    0.000000   0.000000   0.000000   0.000000   0.000000   0.000000
     8  C    0.000000   0.000000   0.000000   0.000000   0.000000   0.000000
     9  C    0.000000   0.000000   0.000000   0.000000   0.000000   0.000000
    10  O    0.000000   0.000000   0.000000   0.000000   0.000000   0.000000
    11  N    0.000000   0.000000   0.000000   0.000000   0.000000   0.000000
    12  C    0.000000   0.000000   0.000000   0.000000   0.000000   0.000000
    13  C    4.150526   0.000000   0.000000   0.000000   0.000000   0.000000
    14  O    0.000000   5.772722   0.000000   0.000000   0.000000   0.000000
    15  C    0.000000   0.000000   2.806308   0.000000   0.000000   0.000000
    16  C    0.000000   0.000000   0.000000   5.012095   0.000000   0.000000
    17  C    0.000000   0.000000   0.000000   0.000000   2.953371   0.000000
    18  C    0.000000   0.000000   0.000000   0.000000   0.000000   2.928780
    19  C    0.000000   0.000000   0.000000   0.000000   0.000000   0.000000
    20  O    0.000000   0.000000   0.000000   0.000000   0.000000   0.000000
    21  O    0.000000   0.000000   0.000000   0.000000   0.000000   0.000000
    22  C    0.000000   0.000000   0.000000   0.000000   0.000000   0.000000
    23  H    0.000000   0.000000   0.000000   0.000000   0.000000   0.000000
              19         20         21         22         23
     1  C    0.000000   0.000000   0.000000   0.000000   0.000000
     2  O    0.000000   0.000000   0.000000   0.000000   0.000000
     3  N    0.000000   0.000000   0.000000   0.000000   0.000000
     4  C    0.000000   0.000000   0.000000   0.000000   0.000000
     5  C    0.000000   0.000000   0.000000   0.000000   0.000000
     6  O    0.000000   0.000000   0.000000   0.000000   0.000000
     7  N    0.000000   0.000000   0.000000   0.000000   0.000000
     8  C    0.000000   0.000000   0.000000   0.000000   0.000000
     9  C    0.000000   0.000000   0.000000   0.000000   0.000000
    10  O    0.000000   0.000000   0.000000   0.000000   0.000000
    11  N    0.000000   0.000000   0.000000   0.000000   0.000000
    12  C    0.000000   0.000000   0.000000   0.000000   0.000000
    13  C    0.000000   0.000000   0.000000   0.000000   0.000000
    14  O    0.000000   0.000000   0.000000   0.000000   0.000000
    15  C    0.000000   0.000000   0.000000   0.000000   0.000000
    16  C    0.000000   0.000000   0.000000   0.000000   0.000000
    17  C    0.000000   0.000000   0.000000   0.000000   0.000000
    18  C    0.000000   0.000000   0.000000   0.000000   0.000000
    19  C    3.771224   0.000000   0.000000   0.000000   0.000000
    20  O    0.000000   5.815494   0.000000   0.000000   0.000000
    21  O    0.000000   0.000000   5.448311   0.000000   0.000000
    22  C    0.000000   0.000000   0.000000   2.717722   0.000000
    23  H    0.000000   0.000000   0.000000   0.000000   0.602151
 Mulliken charges:
               1
     1  C    0.270426
     2  O    0.497290
     3  N    0.023490
     4  C    0.161116
     5  C    0.368280
     6  O   -0.205824
     7  N   -0.440925
     8  C    0.471293
     9  C    0.351843
    10  O   -0.054934
    11  N   -0.287089
    12  C   -0.176259
    13  C   -0.150526
    14  O    0.227278
    15  C    1.193692
    16  C   -1.012095
    17  C    1.046629
    18  C    1.071220
    19  C    0.228776
    20  O    0.184506
    21  O    0.551689
    22  C    1.282278
    23  H    0.397849
 Sum of Mulliken charges =   6.00000
 Mulliken charges with hydrogens summed into heavy atoms:
               1
     1  C    0.668274
     2  O    0.497290
     3  N    0.023490
     4  C    0.161116
     5  C    0.368280
     6  O   -0.205824
     7  N   -0.440925
     8  C    0.471293
     9  C    0.351843
    10  O   -0.054934
    11  N   -0.287089
    12  C   -0.176259
    13  C   -0.150526
    14  O    0.227278
    15  C    1.193692
    16  C   -1.012095
    17  C    1.046629
    18  C    1.071220
    19  C    0.228776
    20  O    0.184506
    21  O    0.551689
    22  C    1.282278
 Charge=              6.0000 electrons
 Dipole moment (field-independent basis, Debye):
    X=            107.4939    Y=             10.4099    Z=            655.3749  Tot=            664.2135
 N-N= 8.084143077455D+02 E-N=-1.249295228513D+03  KE=-2.191431198012D+02
 Leave Link  601 at Wed Jan 12 16:09:15 2022, MaxMem=   402653184 cpu:               1.2 elap:               0.0
 (Enter /work/01114/jfonner/frontera/gaussian/16rC.01/g16/l9999.exe)

 Test job not archived.
 1\1\GINC-C204-029\SP\RPM6\ZDO\C13H1N3O6(6+)\SA748948\12-Jan-2022\0\\#p
  int=acc2e=12 pm6 charge nosymm int=acc2e=12 scf=(noincfock,novaracc,f
 ermi,maxcycle=128,ndamp=64,xqc)\\Atom number=23\\6,1\C,0,3.424,0.965,1
 7.631\O,0,3.136,2.11,17.612\N,0,3.173,0.129,18.647\C,0,2.559,0.516,19.
 903\C,0,3.35,-0.122,21.014\O,0,3.366,-1.339,21.14\N,0,4.067,0.688,21.7
 68\C,0,4.888,0.205,22.851\C,0,4.35,0.769,24.174\O,0,4.161,1.981,24.269
 \N,0,4.065,-0.12,25.151\C,0,3.72,0.313,26.515\C,0,1.138,-0.021,19.983\
 O,0,0.393,0.394,18.824\C,0,0.486,0.501,21.167\C,0,6.362,0.614,22.652\C
 ,0,7.152,0.297,23.874\C,0,6.953,-0.121,21.455\C,0,4.941,0.14,27.42\O,0
 ,5.714,-0.809,27.287\O,0,5.25,0.955,28.294\C,0,2.499,-0.422,27.062\H,0
 ,3.94673789,0.55968361,16.78995082\\Version=ES64L-G16RevC.01\HF=2.1517
 616\RMSD=9.535e-09\Dipole=-1.3045859,-0.0835749,1.4252182\PG=C01 [X(C1
 3H1N3O6)]\\@


 ... IT CAN BE VERY DIFFICULT, IN THESE COMPLEX TIMES,
 TO UNDERSTAND JUST HOW SCIENTISTS DO WHAT THEY DO.

                     DON MOSER IN THE FEBRUARY 1979 SMITHSONIAN
 Job cpu time:       0 days  0 hours  0 minutes 49.8 seconds.
 Elapsed time:       0 days  0 hours  0 minutes  1.3 seconds.
 File lengths (MBytes):  RWF=      6 Int=      0 D2E=      0 Chk=      2 Scr=      1
 Normal termination of Gaussian 16 at Wed Jan 12 16:09:15 2022.
