 Entering Gaussian System, Link 0=g16
 Input=4znn_01_gebf_pm6_1.gjf
 Output=4znn_01_gebf_pm6_1.log
 Initial command:
 /work/01114/jfonner/frontera/gaussian/16rC.01/g16/l1.exe "/tmp/Gau-10586.inp" -scrdir="/tmp/"
 Entering Link 1 = /work/01114/jfonner/frontera/gaussian/16rC.01/g16/l1.exe PID=     10587.
  
 Copyright (c) 1988-2019, Gaussian, Inc.  All Rights Reserved.
  
 This is part of the Gaussian(R) 16 program.  It is based on
 the Gaussian(R) 09 system (copyright 2009, Gaussian, Inc.),
 the Gaussian(R) 03 system (copyright 2003, Gaussian, Inc.),
 the Gaussian(R) 98 system (copyright 1998, Gaussian, Inc.),
 the Gaussian(R) 94 system (copyright 1995, Gaussian, Inc.),
 the Gaussian 92(TM) system (copyright 1992, Gaussian, Inc.),
 the Gaussian 90(TM) system (copyright 1990, Gaussian, Inc.),
 the Gaussian 88(TM) system (copyright 1988, Gaussian, Inc.),
 the Gaussian 86(TM) system (copyright 1986, Carnegie Mellon
 University), and the Gaussian 82(TM) system (copyright 1983,
 Carnegie Mellon University). Gaussian is a federally registered
 trademark of Gaussian, Inc.
  
 This software contains proprietary and confidential information,
 including trade secrets, belonging to Gaussian, Inc.
  
 This software is provided under written license and may be
 used, copied, transmitted, or stored only in accord with that
 written license.
  
 The following legend is applicable only to US Government
 contracts under FAR:
  
                    RESTRICTED RIGHTS LEGEND
  
 Use, reproduction and disclosure by the US Government is
 subject to restrictions as set forth in subparagraphs (a)
 and (c) of the Commercial Computer Software - Restricted
 Rights clause in FAR 52.227-19.
  
 Gaussian, Inc.
 340 Quinnipiac St., Bldg. 40, Wallingford CT 06492
  
  
 ---------------------------------------------------------------
 Warning -- This program may not be used in any manner that
 competes with the business of Gaussian, Inc. or will provide
 assistance to any competitor of Gaussian, Inc.  The licensee
 of this program is prohibited from giving any competitor of
 Gaussian, Inc. access to this program.  By using this program,
 the user acknowledges that Gaussian, Inc. is engaged in the
 business of creating and licensing software in the field of
 computational chemistry and represents and warrants to the
 licensee that it is not a competitor of Gaussian, Inc. and that
 it will not use this program in any manner prohibited above.
 ---------------------------------------------------------------
  

 Cite this work as:
 Gaussian 16, Revision C.01,
 M. J. Frisch, G. W. Trucks, H. B. Schlegel, G. E. Scuseria, 
 M. A. Robb, J. R. Cheeseman, G. Scalmani, V. Barone, 
 G. A. Petersson, H. Nakatsuji, X. Li, M. Caricato, A. V. Marenich, 
 J. Bloino, B. G. Janesko, R. Gomperts, B. Mennucci, H. P. Hratchian, 
 J. V. Ortiz, A. F. Izmaylov, J. L. Sonnenberg, D. Williams-Young, 
 F. Ding, F. Lipparini, F. Egidi, J. Goings, B. Peng, A. Petrone, 
 T. Henderson, D. Ranasinghe, V. G. Zakrzewski, J. Gao, N. Rega, 
 G. Zheng, W. Liang, M. Hada, M. Ehara, K. Toyota, R. Fukuda, 
 J. Hasegawa, M. Ishida, T. Nakajima, Y. Honda, O. Kitao, H. Nakai, 
 T. Vreven, K. Throssell, J. A. Montgomery, Jr., J. E. Peralta, 
 F. Ogliaro, M. J. Bearpark, J. J. Heyd, E. N. Brothers, K. N. Kudin, 
 V. N. Staroverov, T. A. Keith, R. Kobayashi, J. Normand, 
 K. Raghavachari, A. P. Rendell, J. C. Burant, S. S. Iyengar, 
 J. Tomasi, M. Cossi, J. M. Millam, M. Klene, C. Adamo, R. Cammi, 
 J. W. Ochterski, R. L. Martin, K. Morokuma, O. Farkas, 
 J. B. Foresman, and D. J. Fox, Gaussian, Inc., Wallingford CT, 2019.
 
 ******************************************
 Gaussian 16:  ES64L-G16RevC.01  3-Jul-2019
                12-Jan-2022 
 ******************************************
 %chk=4znn_01_gebf_pm6_1.chk
 %nproc=56
 Will use up to   56 processors via shared memory.
 %mem=3gb
 ----------------------------------------------------------------------
 #p int=acc2e=12 pm6 charge nosymm int=acc2e=12 scf=(noincfock,novaracc
 ,fermi,maxcycle=128,ndamp=64,xqc)
 ----------------------------------------------------------------------
 1/18=10,28=-2,38=1,125=101,172=1/1;
 2/12=2,15=1,17=6,18=5,40=1/2;
 3/5=2,25=1,27=12,41=3900000/1,2,3;
 4/35=1/1;
 5/5=100002,7=128,8=3,13=1,18=-1,22=13,35=1,38=1,87=12,93=64/2,8;
 6/7=2,8=2,9=2,10=2,28=1,87=12/1;
 99/5=1,9=1/99;
 Leave Link    1 at Wed Jan 12 16:09:12 2022, MaxMem=   402653184 cpu:               2.2 elap:               0.0
 (Enter /work/01114/jfonner/frontera/gaussian/16rC.01/g16/l101.exe)
 --------------
 Atom number=15
 --------------
 Symbolic Z-matrix:
 Charge =  3 Multiplicity = 1
 n                    -6.815    -0.668     1.607 
 c                    -5.714     0.002     2.373 
 c                    -4.357    -0.673     2.588 
 o                    -4.212    -1.87      2.492 
 n                    -3.381     0.125     2.953 
 c                    -2.062    -0.39      3.274 
 c                    -1.636     0.175     4.6 
 o                    -1.744     1.356     4.862 
 n                    -1.095    -0.7       5.415 
 c                    -0.572    -0.311     6.669 
 c                    -0.993    -0.045     2.197 
 c                     0.39     -0.488     2.64 
 c                    -1.378    -0.662     0.897 
 h                     0.42341  -0.6938    6.75571 
 h                    -1.15903  -0.7322    7.45823 
 
 ITRead=  0  0  0  0  0  0  0  0  0  0  0  0  0  0  0
 MicOpt= -1 -1 -1 -1 -1 -1 -1 -1 -1 -1 -1 -1 -1 -1 -1
 NAtoms=     15 NQM=       15 NQMF=       0 NMMI=      0 NMMIF=      0
                NMic=       0 NMicF=      0.
                    Isotopes and Nuclear Properties:
 (Nuclear quadrupole moments (NQMom) in fm**2, nuclear magnetic moments (NMagM)
  in nuclear magnetons)

  Atom         1           2           3           4           5           6           7           8           9          10
 IAtWgt=          14          12          12          16          14          12          12          16          14          12
 AtmWgt=  14.0030740  12.0000000  12.0000000  15.9949146  14.0030740  12.0000000  12.0000000  15.9949146  14.0030740  12.0000000
 NucSpn=           2           0           0           0           2           0           0           0           2           0
 AtZEff=  -0.0000000  -0.0000000  -0.0000000  -0.0000000  -0.0000000  -0.0000000  -0.0000000  -0.0000000  -0.0000000  -0.0000000
 NQMom=    2.0440000   0.0000000   0.0000000   0.0000000   2.0440000   0.0000000   0.0000000   0.0000000   2.0440000   0.0000000
 NMagM=    0.4037610   0.0000000   0.0000000   0.0000000   0.4037610   0.0000000   0.0000000   0.0000000   0.4037610   0.0000000
 AtZNuc=   7.0000000   6.0000000   6.0000000   8.0000000   7.0000000   6.0000000   6.0000000   8.0000000   7.0000000   6.0000000

  Atom        11          12          13          14          15
 IAtWgt=          12          12          12           1           1
 AtmWgt=  12.0000000  12.0000000  12.0000000   1.0078250   1.0078250
 NucSpn=           0           0           0           1           1
 AtZEff=  -0.0000000  -0.0000000  -0.0000000  -0.0000000  -0.0000000
 NQMom=    0.0000000   0.0000000   0.0000000   0.0000000   0.0000000
 NMagM=    0.0000000   0.0000000   0.0000000   2.7928460   2.7928460
 AtZNuc=   6.0000000   6.0000000   6.0000000   1.0000000   1.0000000
 Background charge distribution read from input stream:
 Point Charges:
 XYZ=    0.8400   -0.8540    6.7920 Q=    0.2936 A=    0.0000 R=    0.0000 C=    0.0000
 XYZ=    1.0270   -2.0220    6.7200 Q=   -0.4615 A=    0.0000 R=    0.0000 C=    0.0000
 XYZ=   -1.4110   -0.9130    7.7970 Q=   -1.2093 A=    0.0000 R=    0.0000 C=    0.0000
 XYZ=   -0.7270   -0.6450    9.1230 Q=    0.9838 A=    0.0000 R=    0.0000 C=    0.0000
 XYZ=   -2.8000   -0.3490    7.7890 Q=    0.9737 A=    0.0000 R=    0.0000 C=    0.0000
 XYZ=    1.8100    0.0020    7.0230 Q=   -0.6094 A=    0.0000 R=    0.0000 C=    0.0000
 XYZ=    3.1910   -0.4290    7.1010 Q=   -0.0383 A=    0.0000 R=    0.0000 C=    0.0000
 XYZ=    3.9110    0.2580    8.2290 Q=    0.2652 A=    0.0000 R=    0.0000 C=    0.0000
 XYZ=    4.0640    1.4780    8.2280 Q=   -0.5489 A=    0.0000 R=    0.0000 C=    0.0000
 XYZ=    3.8710   -0.1030    5.7480 Q=    0.4467 A=    0.0000 R=    0.0000 C=    0.0000
 XYZ=    5.2470   -0.6430    5.5810 Q=   -0.4177 A=    0.0000 R=    0.0000 C=    0.0000
 XYZ=    5.8610   -0.6890    4.3530 Q=   -0.2968 A=    0.0000 R=    0.0000 C=    0.0000
 XYZ=    6.1080   -1.1970    6.4480 Q=    0.2630 A=    0.0000 R=    0.0000 C=    0.0000
 XYZ=    7.0590   -1.2270    4.4820 Q=    0.6103 A=    0.0000 R=    0.0000 C=    0.0000
 XYZ=    7.2390   -1.5230    5.7510 Q=   -0.3347 A=    0.0000 R=    0.0000 C=    0.0000
 XYZ=    4.3640   -0.5270    9.1890 Q=   -0.5070 A=    0.0000 R=    0.0000 C=    0.0000
 XYZ=    5.0670    0.0200   10.3260 Q=    0.3996 A=    0.0000 R=    0.0000 C=    0.0000
 XYZ=    4.2710    0.8170   11.2960 Q=    0.1621 A=    0.0000 R=    0.0000 C=    0.0000
 XYZ=    4.3590    2.0330   11.3670 Q=   -0.2980 A=    0.0000 R=    0.0000 C=    0.0000
 XYZ=    3.4920    0.1040   12.0730 Q=   -0.4667 A=    0.0000 R=    0.0000 C=    0.0000
 XYZ=    2.5850    0.6770   13.0850 Q=    0.2746 A=    0.0000 R=    0.0000 C=    0.0000
 XYZ=    3.0060    0.0470   14.3610 Q=    0.2391 A=    0.0000 R=    0.0000 C=    0.0000
 XYZ=    2.9580   -1.1690   14.5150 Q=   -0.4626 A=    0.0000 R=    0.0000 C=    0.0000
 XYZ=    1.1270    0.3300   12.8270 Q=   -1.2217 A=    0.0000 R=    0.0000 C=    0.0000
 XYZ=    0.2480    0.6750   14.0380 Q=    0.9822 A=    0.0000 R=    0.0000 C=    0.0000
 XYZ=    0.6740    1.0470   11.5960 Q=    0.9278 A=    0.0000 R=    0.0000 C=    0.0000
 XYZ=    3.4810    0.8870   15.2620 Q=   -0.6284 A=    0.0000 R=    0.0000 C=    0.0000
 XYZ=    4.1630    0.3920   16.4420 Q=    0.1821 A=    0.0000 R=    0.0000 C=    0.0000
 XYZ=    3.4240    0.9650   17.6310 Q=    0.3166 A=    0.0000 R=    0.0000 C=    0.0000
 XYZ=    3.1360    2.1100   17.6120 Q=   -0.5694 A=    0.0000 R=    0.0000 C=    0.0000
 XYZ=    5.6880    0.7500   16.3890 Q=   -0.3175 A=    0.0000 R=    0.0000 C=    0.0000
 XYZ=    6.2640    0.1300   15.2360 Q=   -0.3082 A=    0.0000 R=    0.0000 C=    0.0000
 XYZ=    6.4200    0.2100   17.5690 Q=    0.9463 A=    0.0000 R=    0.0000 C=    0.0000
 XYZ=    3.1730    0.1290   18.6470 Q=   -0.5421 A=    0.0000 R=    0.0000 C=    0.0000
 XYZ=    2.5590    0.5160   19.9030 Q=    0.0236 A=    0.0000 R=    0.0000 C=    0.0000
 XYZ=    3.3500   -0.1220   21.0140 Q=    0.1847 A=    0.0000 R=    0.0000 C=    0.0000
 XYZ=    3.3660   -1.3390   21.1400 Q=   -0.4163 A=    0.0000 R=    0.0000 C=    0.0000
 XYZ=    1.1380   -0.0210   19.9830 Q=   -0.2907 A=    0.0000 R=    0.0000 C=    0.0000
 XYZ=    0.3930    0.3940   18.8240 Q=   -0.3415 A=    0.0000 R=    0.0000 C=    0.0000
 XYZ=    0.4860    0.5010   21.1670 Q=    0.7765 A=    0.0000 R=    0.0000 C=    0.0000
 XYZ=    4.0670    0.6880   21.7680 Q=   -0.6191 A=    0.0000 R=    0.0000 C=    0.0000
 XYZ=    4.8880    0.2050   22.8510 Q=    0.2833 A=    0.0000 R=    0.0000 C=    0.0000
 XYZ=    4.3500    0.7690   24.1740 Q=    0.1730 A=    0.0000 R=    0.0000 C=    0.0000
 XYZ=    4.1610    1.9810   24.2690 Q=   -0.2861 A=    0.0000 R=    0.0000 C=    0.0000
 XYZ=    6.3620    0.6140   22.6520 Q=   -1.1933 A=    0.0000 R=    0.0000 C=    0.0000
 XYZ=    7.1520    0.2970   23.8740 Q=    0.8585 A=    0.0000 R=    0.0000 C=    0.0000
 XYZ=    6.9530   -0.1210   21.4550 Q=    0.9590 A=    0.0000 R=    0.0000 C=    0.0000
 XYZ=    4.0650   -0.1200   25.1510 Q=   -0.4907 A=    0.0000 R=    0.0000 C=    0.0000
 XYZ=    3.7200    0.3130   26.5150 Q=   -0.3576 A=    0.0000 R=    0.0000 C=    0.0000
 XYZ=    4.9410    0.1400   27.4200 Q=    0.0549 A=    0.0000 R=    0.0000 C=    0.0000
 XYZ=    5.7140   -0.8090   27.2870 Q=   -0.0565 A=    0.0000 R=    0.0000 C=    0.0000
 XYZ=    2.4990   -0.4220   27.0620 Q=    1.1023 A=    0.0000 R=    0.0000 C=    0.0000
 XYZ=    5.2500    0.9550   28.2940 Q=    0.3115 A=    0.0000 R=    0.0000 C=    0.0000
 Pt Chg Charge=             -0.2958 electrons
 Pt Chg Dipole moment (Debye):
    X=            -17.4146    Y=             -2.9112    Z=             40.5473  Tot=             44.2247
 Pt Chg Quadrupole moment (Debye-Ang):
   XX=            180.9696   YY=            -39.8020   ZZ=           2085.2949
   XY=            -54.3570   XZ=            104.9257   YZ=           -110.1104
 Pt Chg Traceless Quadrupole moment (Debye-Ang):
   XX=           -561.1846   YY=           -781.9562   ZZ=           1343.1407
   XY=            -54.3570   XZ=            104.9257   YZ=           -110.1104
 Pt Chg Octapole moment (Debye-Ang**2):
  XXX=           1814.2015  YYY=            -23.2081  ZZZ=          71455.9433  XYY=           -136.9126
  XXY=           -274.9453  XXZ=           4369.8704  XZZ=           9000.2717  YZZ=          -2857.7614
  YYZ=           -567.2139  XYZ=           -863.8911
 Pt Chg Hexadecapole moment (Debye-Ang**3):
 XXXX=          16915.7758 YYYY=           -156.4782 ZZZZ=        2200052.6791 XXXY=          -1339.0433
 XXXZ=          40923.8668 YYYX=           -177.8685 YYYZ=           -556.2902 ZZZX=         308749.4943
 ZZZY=         -67593.4064 XXYY=           -525.1150 XXZZ=         109870.0058 YYZZ=          -9340.2829
 XXYZ=          -3900.9088 YYXZ=          -2216.5397 ZZXY=         -15805.8115
 Leave Link  101 at Wed Jan 12 16:09:13 2022, MaxMem=   402653184 cpu:               5.7 elap:               0.1
 (Enter /work/01114/jfonner/frontera/gaussian/16rC.01/g16/l202.exe)
                          Input orientation:                          
 ---------------------------------------------------------------------
 Center     Atomic      Atomic             Coordinates (Angstroms)
 Number     Number       Type             X           Y           Z
 ---------------------------------------------------------------------
      1          7           0       -6.815000   -0.668000    1.607000
      2          6           0       -5.714000    0.002000    2.373000
      3          6           0       -4.357000   -0.673000    2.588000
      4          8           0       -4.212000   -1.870000    2.492000
      5          7           0       -3.381000    0.125000    2.953000
      6          6           0       -2.062000   -0.390000    3.274000
      7          6           0       -1.636000    0.175000    4.600000
      8          8           0       -1.744000    1.356000    4.862000
      9          7           0       -1.095000   -0.700000    5.415000
     10          6           0       -0.572000   -0.311000    6.669000
     11          6           0       -0.993000   -0.045000    2.197000
     12          6           0        0.390000   -0.488000    2.640000
     13          6           0       -1.378000   -0.662000    0.897000
     14          1           0        0.423413   -0.693797    6.755711
     15          1           0       -1.159026   -0.732204    7.458232
 ---------------------------------------------------------------------
                    Distance matrix (angstroms):
                    1          2          3          4          5
     1  N    0.000000
     2  C    1.499285   0.000000
     3  C    2.646535   1.530784   0.000000
     4  O    3.000606   2.403029   1.209566   0.000000
     5  N    3.772654   2.407160   1.312480   2.209775   0.000000
     6  C    5.044520   3.781874   2.411993   2.724780   1.451905
     7  C    6.040756   4.649682   3.488709   3.906593   2.400028
     8  O    6.356622   4.877431   4.014435   4.702659   2.799895
     9  N    6.871702   5.575099   4.316631   4.430408   3.459460
    10  C    8.045268   6.707738   5.577798   5.755642   4.678593
    11  C    5.884889   4.724513   3.444381   3.712090   2.510574
    12  C    7.280901   6.129454   4.750888   4.807310   3.833299
    13  C    5.483166   4.628214   3.425499   3.469127   2.976326
    14  H    8.882821   7.573647   6.342129   6.407007   5.441011
    15  H    8.138248   6.866325   5.826637   5.939587   5.095987
                    6          7          8          9         10
     6  C    0.000000
     7  C    1.502989   0.000000
     8  O    2.381467   1.214524   0.000000
     9  N    2.369614   1.312452   2.225791   0.000000
    10  C    3.708418   2.376774   2.723550   1.413282   0.000000
    11  C    1.556186   2.497250   3.103067   3.285567   4.499642
    12  C    2.534534   2.895832   3.590484   3.154488   4.146036
    13  C    2.488367   3.805173   4.464023   4.527014   5.838563
    14  H    4.288576   3.105331   3.533481   2.025617   1.070000
    15  H    4.294213   3.036448   3.382781   2.044489   1.070000
                   11         12         13         14         15
    11  C    0.000000
    12  C    1.518284   0.000000
    13  C    1.489602   2.488805   0.000000
    14  H    4.817573   4.120988   6.129486   0.000000
    15  H    5.308519   5.066999   6.565261   1.731799   0.000000
 Symmetry turned off by external request.
 Stoichiometry    C8H2N3O2(3+)
 Framework group  C1[X(C8H2N3O2)]
 Deg. of freedom    39
 Full point group                 C1      NOp   1
 Rotational constants (GHZ):           1.3778467           0.5109407           0.4262069
 Leave Link  202 at Wed Jan 12 16:09:13 2022, MaxMem=   402653184 cpu:               1.2 elap:               0.0
 (Enter /work/01114/jfonner/frontera/gaussian/16rC.01/g16/l301.exe)
 Standard basis: VSTO-6G (5D, 7F)
 Ernie: Thresh=  0.10000D-02 Tol=  0.10000D-05 Strict=F.
  NNHCO=     0 NNPyr=     0 NCTC=     0               EPep=         0.000000000
    EC=       274.556056471  ECS=         3.365074128   EG=         0.351710822
   EHC=         0.001144713  EAt=       -75.086781620  AtH=         3.074761544
 EPDDG=         0.000000000  ECC=       278.273986134 EAtT=        78.161543164
    54 basis functions,   324 primitive gaussians,    54 cartesian basis functions
    29 alpha electrons       29 beta electrons
       nuclear repulsion energy       356.4355292976 Hartrees.
 IExCor=    0 DFT=F Ex=HF Corr=None ExCW=0 ScaHFX=  1.000000
 ScaDFX=  1.000000  1.000000  1.000000  1.000000 ScalE2=  1.000000  1.000000
 IRadAn=      5 IRanWt=     -1 IRanGd=            0 ICorTp=0 IEmpDi=  4
 Integral buffers will be    131072 words long.
 Regular integral format.
 Two-electron integral symmetry is turned off.
 Background charge distribution read from rwf.
 PtFMM for NChg=        68 BoxLen=    40.00 Levels= 1 LMax=20 SMax=    51.8 ICnFMM=     1:
 Self energy of the charges =        -3.1346763946 a.u.
 MM   energy of the charges =         0.0000000000 a.u.
 Nuclei-charges interaction =        -3.6765997896 a.u.
 Nuclear repulsion after external point charges =      349.6242531134 Hartrees.
 Leave Link  301 at Wed Jan 12 16:09:13 2022, MaxMem=   402653184 cpu:               2.9 elap:               0.1
 (Enter /work/01114/jfonner/frontera/gaussian/16rC.01/g16/l302.exe)
 Do NDO integrals.
 NPDir=0 NMtPBC=     1 NCelOv=     1 NCel=       1 NClECP=     1 NCelD=      1
         NCelK=      1 NCelE2=     1 NClLst=     1 CellRange=     0.0.
 One-electron integrals computed using PRISM.
 NBasis=    54 RedAO= F EigKep=  0.00D+00  NBF=    54
 NBsUse=    54 1.00D-04 EigRej=  0.00D+00 NBFU=    54
 Leave Link  302 at Wed Jan 12 16:09:13 2022, MaxMem=   402653184 cpu:               5.8 elap:               0.1
 (Enter /work/01114/jfonner/frontera/gaussian/16rC.01/g16/l303.exe)
 DipDrv:  MaxL=1.
 Leave Link  303 at Wed Jan 12 16:09:13 2022, MaxMem=   402653184 cpu:               1.1 elap:               0.0
 (Enter /work/01114/jfonner/frontera/gaussian/16rC.01/g16/l401.exe)
 Simple Huckel Guess.
 JPrj=0 DoOrth=F DoCkMO=F.
 Leave Link  401 at Wed Jan 12 16:09:13 2022, MaxMem=   402653184 cpu:               4.9 elap:               0.1
 (Enter /work/01114/jfonner/frontera/gaussian/16rC.01/g16/l502.exe)
 Keep J ints in memory in canonical form, NReq=868557.
 FoFCou: FMM=F IPFlag=           0 FMFlag=           0 FMFlg1=           0
         NFxFlg=           0 DoJE=F BraDBF=F KetDBF=F FulRan=T
         wScrn=  0.000000 ICntrl=       600 IOpCl=  2 I1Cent=           0 NGrid=           0
         NMat0=    1 NMatS0=    132 NMatT0=    0 NMatD0=    1 NMtDS0=    0 NMtDT0=    0
 Symmetry not used in FoFCou.
 Two-electron integral symmetry not used.
 Closed shell SCF:
 Using DIIS extrapolation, IDIIS=    10.
 Overlap will be assumed to be unity.
 NGot=   402653184 LenX=   402575458 LenY=   402572101
 Requested convergence on RMS density matrix=1.00D-08 within 128 cycles.
 Requested convergence on MAX density matrix=1.00D-06.
 Requested convergence on             energy=1.00D-06.
 Level shift goal  0.100 maximum shift  0.100.
 No special actions if energy rises.
 Dynamic level shift is on during FON iterations.

 Cycle   1  Pass 1  IDiag  1:
 E=-0.273771826153961    
 DIIS: error= 7.97D-02 at cycle   1 NSaved=   1.
 NSaved= 1 IEnMin= 1 EnMin=-0.273771826153961     IErMin= 1 ErrMin= 7.97D-02
 ErrMax= 7.97D-02  0.00D+00 EMaxC= 1.00D+00 BMatC= 3.00D-01 BMatP= 3.00D-01
 IDIUse=1 WtCom= 1.00D+00 WtEn= 0.00D+00
 Coeff-Com:  0.100D+01
 Coeff:      0.100D+01
 Gap=     0.091 Goal=     0.100 Shift=    0.009
 T= 2082. Gap= 0.010 NK=0 IS=   26 IE=   54 IFin=   34
          NO(<0.9)=   2  NV(>0.1)=   1     28.62e < EF      0.38e >EF  Err=3.6D-15
 GapD=    0.091 DampG=0.500 DampE=0.500 DampFc=0.2500 IDamp=-1.
 Damping current iteration by 2.50D-01
 RMSDP=4.41D-02 MaxDP=6.77D-01              OVMax= 0.00D+00

 Cycle   2  Pass 1  IDiag  1:
 E=-0.466934370466333     Delta-E=       -0.193162544312 Rises=F Damp=T
 DIIS: error= 6.49D-02 at cycle   2 NSaved=   2.
 NSaved= 2 IEnMin= 2 EnMin=-0.466934370466333     IErMin= 2 ErrMin= 6.49D-02
 ErrMax= 6.49D-02  0.00D+00 EMaxC= 1.00D+00 BMatC= 1.39D-01 BMatP= 3.00D-01
 IDIUse=1 WtCom= 1.00D+00 WtEn= 0.00D+00
 Coeff-Com: -0.825D+00 0.183D+01
 Coeff:     -0.825D+00 0.183D+01
 Gap=     0.333 Goal=     0.100 Shift=    0.000
 T= 2044. Gap= 0.036 NK=0 IS=   25 IE=   54 IFin=   32
          NO(<0.9)=   0  NV(>0.1)=   0     28.94e < EF      0.06e >EF  Err=1.1D-14
 GapD=    0.333 DampG=1.000 DampE=0.500 DampFc=0.5000 IDamp=-1.
 Damping current iteration by 5.00D-01
 RMSDP=3.05D-02 MaxDP=3.42D-01 DE=-1.93D-01 OVMax= 0.00D+00

 Cycle   3  Pass 1  IDiag  1:
 E=-0.408786803573207     Delta-E=        0.058147566893 Rises=F Damp=T
 DIIS: error= 4.41D-02 at cycle   3 NSaved=   3.
 NSaved= 3 IEnMin= 2 EnMin=-0.466934370466333     IErMin= 3 ErrMin= 4.41D-02
 ErrMax= 4.41D-02  0.00D+00 EMaxC= 1.00D+00 BMatC= 1.17D-01 BMatP= 1.39D-01
 IDIUse=1 WtCom= 1.00D+00 WtEn= 0.00D+00
 Coeff-Com: -0.105D+01 0.107D+01 0.977D+00
 Coeff:     -0.105D+01 0.107D+01 0.977D+00
 T= 1940. Gap= 0.036 NK=2 IS=   28 IE=   33 IFin=   31
          NO(<0.9)=   0  NV(>0.1)=   0     28.95e < EF      0.05e >EF  Err=3.6D-15
 GapD=    0.333 DampG=1.000 DampE=0.500 DampFc=0.5000 IDamp=-1.
 Damping current iteration by 5.00D-01
 RMSDP=2.30D-02 MaxDP=2.44D-01 DE= 5.81D-02 OVMax= 0.00D+00

 Cycle   4  Pass 1  IDiag  1:
 E=-0.963955456243184     Delta-E=       -0.555168652670 Rises=F Damp=T
 DIIS: error= 2.32D-02 at cycle   4 NSaved=   4.
 NSaved= 4 IEnMin= 4 EnMin=-0.963955456243184     IErMin= 4 ErrMin= 2.32D-02
 ErrMax= 2.32D-02  0.00D+00 EMaxC= 1.00D+00 BMatC= 5.01D-02 BMatP= 1.17D-01
 IDIUse=1 WtCom= 1.00D+00 WtEn= 0.00D+00
 Coeff-Com: -0.672D+00 0.462D+00-0.136D+00 0.135D+01
 Coeff:     -0.672D+00 0.462D+00-0.136D+00 0.135D+01
 Gap=     0.101 Goal=     0.100 Shift=    0.000
 T= 1727. Gap= 0.026 NK=2 IS=   22 IE=   33 IFin=   30
          NO(<0.9)=   0  NV(>0.1)=   0     28.91e < EF      0.09e >EF  Err=3.6D-15
 GapD=    0.101 DampG=1.000 DampE=0.500 DampFc=0.5000 IDamp=-1.
 Damping current iteration by 5.00D-01
 RMSDP=1.39D-02 MaxDP=1.59D-01 DE=-5.55D-01 OVMax= 0.00D+00

 Cycle   5  Pass 1  IDiag  1:
 E= -1.25856053851351     Delta-E=       -0.294605082270 Rises=F Damp=T
 DIIS: error= 1.14D-02 at cycle   5 NSaved=   5.
 NSaved= 5 IEnMin= 5 EnMin= -1.25856053851351     IErMin= 5 ErrMin= 1.14D-02
 ErrMax= 1.14D-02  0.00D+00 EMaxC= 1.00D+00 BMatC= 1.88D-02 BMatP= 5.01D-02
 IDIUse=1 WtCom= 1.00D+00 WtEn= 0.00D+00
 Coeff-Com:  0.266D-02 0.269D-01 0.315D+00-0.209D+01 0.275D+01
 Coeff:      0.266D-02 0.269D-01 0.315D+00-0.209D+01 0.275D+01
 Gap=     0.035 Goal=     0.100 Shift=    0.065
 T= 1415. Gap= 0.109 NK=0 IS=    1 IE=   54 IFin=   30
          NO(<0.9)=   0  NV(>0.1)=   0     29.00e < EF      0.00e >EF  Err=0.0D+00
 GapD=    0.035 DampG=0.250 DampE=0.500 DampFc=0.1250 IDamp=-1.
 Damping current iteration by 1.25D-01
 RMSDP=1.07D-02 MaxDP=6.72D-02 DE=-2.95D-01 OVMax= 0.00D+00

 Cycle   6  Pass 1  IDiag  1:
 E= -1.29707794102961     Delta-E=       -0.038517402516 Rises=F Damp=T
 DIIS: error= 1.00D-02 at cycle   6 NSaved=   6.
 NSaved= 6 IEnMin= 6 EnMin= -1.29707794102961     IErMin= 6 ErrMin= 1.00D-02
 ErrMax= 1.00D-02  0.00D+00 EMaxC= 1.00D+00 BMatC= 1.52D-02 BMatP= 1.88D-02
 IDIUse=1 WtCom= 1.00D+00 WtEn= 0.00D+00
 Coeff-Com: -0.909D-02 0.398D-01 0.128D+00-0.616D+00-0.563D+01 0.709D+01
 Coeff:     -0.909D-02 0.398D-01 0.128D+00-0.616D+00-0.563D+01 0.709D+01
 Gap=     0.089 Goal=     0.100 Shift=    0.011
 T= 1075. Gap= 0.107 NK=3 IS=   30 IE=   40 IFin=   29
          NO(<0.9)=   0  NV(>0.1)=   0     29.00e < EF      0.00e >EF  Err=0.0D+00
 GapD=    0.089 DampG=0.500 DampE=0.500 DampFc=0.2500 IDamp=-1.
 Damping current iteration by 2.50D-01
 RMSDP=1.22D-02 MaxDP=9.04D-02 DE=-3.85D-02 OVMax= 0.00D+00

 Cycle   7  Pass 1  IDiag  1:
 E= -1.36613561659090     Delta-E=       -0.069057675561 Rises=F Damp=T
 DIIS: error= 7.93D-03 at cycle   7 NSaved=   7.
 NSaved= 7 IEnMin= 7 EnMin= -1.36613561659090     IErMin= 7 ErrMin= 7.93D-03
 ErrMax= 7.93D-03  0.00D+00 EMaxC= 1.00D+00 BMatC= 9.25D-03 BMatP= 1.52D-02
 IDIUse=1 WtCom= 1.00D+00 WtEn= 0.00D+00
 Coeff-Com: -0.173D-02 0.580D-01-0.574D-02-0.501D+00-0.423D+00-0.649D+00
 Coeff-Com:  0.252D+01
 Coeff:     -0.173D-02 0.580D-01-0.574D-02-0.501D+00-0.423D+00-0.649D+00
 Coeff:      0.252D+01
 Gap=     0.103 Goal=     0.100 Shift=    0.000
 T=  824. Gap= 0.104 NK=3 IS=   30 IE=   41 IFin=   29
          NO(<0.9)=   0  NV(>0.1)=   0     29.00e < EF      0.00e >EF  Err=0.0D+00
 GapD=    0.103 DampG=1.000 DampE=1.000 DampFc=1.0000 IDamp=-1.
 RMSDP=1.04D-02 MaxDP=8.32D-02 DE=-6.91D-02 OVMax= 0.00D+00

 Cycle   8  Pass 1  IDiag  3:
 E= -1.61866076753813     Delta-E=       -0.252525150947 Rises=F Damp=F
 DIIS: error= 3.73D-03 at cycle   8 NSaved=   8.
 NSaved= 8 IEnMin= 8 EnMin= -1.61866076753813     IErMin= 8 ErrMin= 3.73D-03
 ErrMax= 3.73D-03  0.00D+00 EMaxC= 1.00D+00 BMatC= 1.73D-03 BMatP= 9.25D-03
 IDIUse=1 WtCom= 1.00D+00 WtEn= 0.00D+00
 Coeff-Com: -0.131D-01 0.579D-01 0.894D-01-0.606D+00-0.383D+01 0.720D+01
 Coeff-Com: -0.283D+01 0.924D+00
 Coeff:     -0.131D-01 0.579D-01 0.894D-01-0.606D+00-0.383D+01 0.720D+01
 Coeff:     -0.283D+01 0.924D+00
 Gap=     0.102 Goal=     0.100 Shift=    0.000
 T=  642. Gap= 0.102 NK=3 IS=   30 IE=   41 IFin=   29
          NO(<0.9)=   0  NV(>0.1)=   0     29.00e < EF      0.00e >EF  Err=0.0D+00
 GapD=    0.102 DampG=1.000 DampE=1.000 DampFc=1.0000 IDamp=-1.
 RMSDP=7.91D-04 MaxDP=7.60D-03 DE=-2.53D-01 OVMax= 2.14D-02

 Cycle   9  Pass 1  IDiag  3:
 E= -1.62207328634611     Delta-E=       -0.003412518808 Rises=F Damp=F
 DIIS: error= 3.16D-03 at cycle   9 NSaved=   9.
 NSaved= 9 IEnMin= 9 EnMin= -1.62207328634611     IErMin= 9 ErrMin= 3.16D-03
 ErrMax= 3.16D-03  0.00D+00 EMaxC= 1.00D+00 BMatC= 1.14D-03 BMatP= 1.73D-03
 IDIUse=1 WtCom= 1.00D+00 WtEn= 0.00D+00
 Coeff-Com: -0.745D-02 0.237D-01 0.162D-01 0.212D-01-0.251D+01 0.457D+01
 Coeff-Com: -0.249D+01-0.278D+01 0.415D+01
 Coeff:     -0.745D-02 0.237D-01 0.162D-01 0.212D-01-0.251D+01 0.457D+01
 Coeff:     -0.249D+01-0.278D+01 0.415D+01
 Gap=     0.115 Goal=     0.100 Shift=    0.000
 T=  414. Gap= 0.115 NK=3 IS=   30 IE=   40 IFin=   29
          NO(<0.9)=   0  NV(>0.1)=   0     29.00e < EF      0.00e >EF  Err=0.0D+00
 GapD=    0.115 DampG=1.000 DampE=1.000 DampFc=1.0000 IDamp=-1.
 RMSDP=3.75D-03 MaxDP=3.81D-02 DE=-3.41D-03 OVMax= 8.66D-02

 Cycle  10  Pass 1  IDiag  3:
 E= -1.63032649534222     Delta-E=       -0.008253208996 Rises=F Damp=F
 DIIS: error= 2.47D-03 at cycle  10 NSaved=  10.
 NSaved=10 IEnMin=10 EnMin= -1.63032649534222     IErMin=10 ErrMin= 2.47D-03
 ErrMax= 2.47D-03  0.00D+00 EMaxC= 1.00D+00 BMatC= 4.55D-04 BMatP= 1.14D-03
 IDIUse=1 WtCom= 1.00D+00 WtEn= 0.00D+00
 Coeff-Com:  0.465D-02-0.178D-01 0.156D-01 0.108D-01-0.192D+01 0.293D+01
 Coeff-Com: -0.103D+01-0.885D+00 0.293D+00 0.160D+01
 Coeff:      0.465D-02-0.178D-01 0.156D-01 0.108D-01-0.192D+01 0.293D+01
 Coeff:     -0.103D+01-0.885D+00 0.293D+00 0.160D+01
 Gap=     0.113 Goal=     0.100 Shift=    0.000
 T=  138. Gap= 0.113 NK=3 IS=   30 IE=   40 IFin=   29
          NO(<0.9)=   0  NV(>0.1)=   0     29.00e < EF      0.00e >EF  Err=0.0D+00
 GapD=    0.113 DampG=1.000 DampE=1.000 DampFc=1.0000 IDamp=-1.
 RMSDP=3.38D-03 MaxDP=3.16D-02 DE=-8.25D-03 OVMax= 8.10D-02

 Cycle  11  Pass 1  IDiag  3:
 E= -1.63463242168763     Delta-E=       -0.004305926345 Rises=F Damp=F
 DIIS: error= 1.29D-03 at cycle  11 NSaved=  11.
 NSaved=11 IEnMin=11 EnMin= -1.63463242168763     IErMin=11 ErrMin= 1.29D-03
 ErrMax= 1.29D-03  0.00D+00 EMaxC= 1.00D+00 BMatC= 9.96D-05 BMatP= 4.55D-04
 IDIUse=1 WtCom= 1.00D+00 WtEn= 0.00D+00
 Coeff-Com:  0.555D-02-0.347D-02 0.116D-01-0.666D-01-0.337D+00 0.861D+00
 Coeff-Com: -0.504D+00 0.198D+00 0.338D+00-0.137D+01 0.187D+01
 Coeff:      0.555D-02-0.347D-02 0.116D-01-0.666D-01-0.337D+00 0.861D+00
 Coeff:     -0.504D+00 0.198D+00 0.338D+00-0.137D+01 0.187D+01
 Gap=     0.110 Goal=     0.100 Shift=    0.000
 GapD=    0.110 DampG=1.000 DampE=1.000 DampFc=1.0000 IDamp=-1.
 RMSDP=1.78D-03 MaxDP=1.58D-02 DE=-4.31D-03 OVMax= 4.26D-02

 Cycle  12  Pass 1  IDiag  3:
 E= -1.63564175283773     Delta-E=       -0.001009331150 Rises=F Damp=F
 DIIS: error= 9.14D-04 at cycle  12 NSaved=  12.
 NSaved=12 IEnMin=12 EnMin= -1.63564175283773     IErMin=12 ErrMin= 9.14D-04
 ErrMax= 9.14D-04  0.00D+00 EMaxC= 1.00D+00 BMatC= 5.09D-05 BMatP= 9.96D-05
 IDIUse=1 WtCom= 1.00D+00 WtEn= 0.00D+00
 Coeff-Com:  0.274D-02-0.410D-02 0.990D-02-0.528D-01-0.169D+00 0.390D+00
 Coeff-Com: -0.156D+00 0.165D+00-0.423D-01-0.571D+00 0.102D+00 0.133D+01
 Coeff:      0.274D-02-0.410D-02 0.990D-02-0.528D-01-0.169D+00 0.390D+00
 Coeff:     -0.156D+00 0.165D+00-0.423D-01-0.571D+00 0.102D+00 0.133D+01
 Gap=     0.111 Goal=     0.100 Shift=    0.000
 RMSDP=1.70D-03 MaxDP=1.68D-02 DE=-1.01D-03 OVMax= 3.93D-02

 Cycle  13  Pass 1  IDiag  3:
 E= -1.63610738345596     Delta-E=       -0.000465630618 Rises=F Damp=F
 DIIS: error= 5.67D-04 at cycle  13 NSaved=  13.
 NSaved=13 IEnMin=13 EnMin= -1.63610738345596     IErMin=13 ErrMin= 5.67D-04
 ErrMax= 5.67D-04  0.00D+00 EMaxC= 1.00D+00 BMatC= 2.24D-05 BMatP= 5.09D-05
 IDIUse=1 WtCom= 1.00D+00 WtEn= 0.00D+00
 Coeff-Com:  0.658D-03 0.432D-03-0.125D-02 0.362D-02-0.144D+00 0.157D+00
 Coeff-Com: -0.448D-02-0.335D+00 0.316D+00 0.192D+00-0.412D+00-0.237D+00
 Coeff-Com:  0.146D+01
 Coeff:      0.658D-03 0.432D-03-0.125D-02 0.362D-02-0.144D+00 0.157D+00
 Coeff:     -0.448D-02-0.335D+00 0.316D+00 0.192D+00-0.412D+00-0.237D+00
 Coeff:      0.146D+01
 Gap=     0.112 Goal=     0.100 Shift=    0.000
 RMSDP=8.01D-04 MaxDP=9.04D-03 DE=-4.66D-04 OVMax= 1.59D-02

 Cycle  14  Pass 1  IDiag  3:
 E= -1.63625364083219     Delta-E=       -0.000146257376 Rises=F Damp=F
 DIIS: error= 3.16D-04 at cycle  14 NSaved=  14.
 NSaved=14 IEnMin=14 EnMin= -1.63625364083219     IErMin=14 ErrMin= 3.16D-04
 ErrMax= 3.16D-04  0.00D+00 EMaxC= 1.00D+00 BMatC= 9.17D-06 BMatP= 2.24D-05
 IDIUse=1 WtCom= 1.00D+00 WtEn= 0.00D+00
 Coeff-Com: -0.841D-03 0.559D-03 0.240D-02-0.203D-01 0.185D+00-0.209D+00
 Coeff-Com:  0.484D-01 0.193D+00-0.142D+00-0.322D+00 0.653D+00 0.304D+00
 Coeff-Com: -0.246D+01 0.277D+01
 Coeff:     -0.841D-03 0.559D-03 0.240D-02-0.203D-01 0.185D+00-0.209D+00
 Coeff:      0.484D-01 0.193D+00-0.142D+00-0.322D+00 0.653D+00 0.304D+00
 Coeff:     -0.246D+01 0.277D+01
 Gap=     0.111 Goal=     0.100 Shift=    0.000
 RMSDP=5.64D-04 MaxDP=4.92D-03 DE=-1.46D-04 OVMax= 1.14D-02

 Cycle  15  Pass 1  IDiag  3:
 E= -1.63639609715875     Delta-E=       -0.000142456327 Rises=F Damp=F
 DIIS: error= 9.71D-05 at cycle  15 NSaved=  15.
 NSaved=15 IEnMin=15 EnMin= -1.63639609715875     IErMin=15 ErrMin= 9.71D-05
 ErrMax= 9.71D-05  0.00D+00 EMaxC= 1.00D+00 BMatC= 1.76D-06 BMatP= 9.17D-06
 IDIUse=1 WtCom= 1.00D+00 WtEn= 0.00D+00
 Coeff-Com:  0.377D-03-0.738D-03-0.147D-02 0.106D-02 0.373D-01-0.919D-01
 Coeff-Com:  0.711D-01 0.978D-01-0.133D+00 0.885D-02-0.586D-01-0.515D-01
 Coeff-Com:  0.659D+00-0.109D+01 0.155D+01
 Coeff:      0.377D-03-0.738D-03-0.147D-02 0.106D-02 0.373D-01-0.919D-01
 Coeff:      0.711D-01 0.978D-01-0.133D+00 0.885D-02-0.586D-01-0.515D-01
 Coeff:      0.659D+00-0.109D+01 0.155D+01
 Gap=     0.113 Goal=     0.100 Shift=    0.000
 RMSDP=3.18D-04 MaxDP=3.22D-03 DE=-1.42D-04 OVMax= 6.68D-03

 Cycle  16  Pass 1  IDiag  3:
 E= -1.63642998584282     Delta-E=       -0.000033888684 Rises=F Damp=F
 DIIS: error= 8.37D-05 at cycle  16 NSaved=  16.
 NSaved=16 IEnMin=16 EnMin= -1.63642998584282     IErMin=16 ErrMin= 8.37D-05
 ErrMax= 8.37D-05  0.00D+00 EMaxC= 1.00D+00 BMatC= 7.84D-07 BMatP= 1.76D-06
 IDIUse=1 WtCom= 1.00D+00 WtEn= 0.00D+00
 Coeff-Com: -0.155D-03 0.262D-03-0.304D-03-0.737D-02 0.152D+00-0.197D+00
 Coeff-Com:  0.514D-01-0.484D-01 0.439D-01 0.199D-01-0.163D-01 0.209D+00
 Coeff-Com: -0.639D+00 0.909D+00-0.144D+01 0.197D+01
 Coeff:     -0.155D-03 0.262D-03-0.304D-03-0.737D-02 0.152D+00-0.197D+00
 Coeff:      0.514D-01-0.484D-01 0.439D-01 0.199D-01-0.163D-01 0.209D+00
 Coeff:     -0.639D+00 0.909D+00-0.144D+01 0.197D+01
 Gap=     0.113 Goal=     0.100 Shift=    0.000
 RMSDP=2.24D-04 MaxDP=2.28D-03 DE=-3.39D-05 OVMax= 5.48D-03

 Cycle  17  Pass 1  IDiag  3:
 E= -1.63644213546678     Delta-E=       -0.000012149624 Rises=F Damp=F
 DIIS: error= 4.85D-05 at cycle  17 NSaved=  17.
 NSaved=17 IEnMin=17 EnMin= -1.63644213546678     IErMin=17 ErrMin= 4.85D-05
 ErrMax= 4.85D-05  0.00D+00 EMaxC= 1.00D+00 BMatC= 2.53D-07 BMatP= 7.84D-07
 IDIUse=1 WtCom= 1.00D+00 WtEn= 0.00D+00
 Coeff-Com: -0.371D-04 0.405D-03-0.611D-04 0.386D-03-0.149D-01 0.128D-01
 Coeff-Com:  0.319D-02 0.346D-01-0.275D-01-0.460D-01 0.708D-01-0.852D-01
 Coeff-Com:  0.609D-01-0.855D-01 0.554D+00-0.131D+01 0.183D+01
 Coeff:     -0.371D-04 0.405D-03-0.611D-04 0.386D-03-0.149D-01 0.128D-01
 Coeff:      0.319D-02 0.346D-01-0.275D-01-0.460D-01 0.708D-01-0.852D-01
 Coeff:      0.609D-01-0.855D-01 0.554D+00-0.131D+01 0.183D+01
 Gap=     0.113 Goal=     0.100 Shift=    0.000
 RMSDP=8.22D-05 MaxDP=6.74D-04 DE=-1.21D-05 OVMax= 1.44D-03

 Cycle  18  Pass 1  IDiag  3:
 E= -1.63644612266972     Delta-E=       -0.000003987203 Rises=F Damp=F
 DIIS: error= 3.07D-05 at cycle  18 NSaved=  18.
 NSaved=18 IEnMin=18 EnMin= -1.63644612266972     IErMin=18 ErrMin= 3.07D-05
 ErrMax= 3.07D-05  0.00D+00 EMaxC= 1.00D+00 BMatC= 9.08D-08 BMatP= 2.53D-07
 IDIUse=1 WtCom= 1.00D+00 WtEn= 0.00D+00
 Coeff-Com:  0.684D-04 0.470D-04 0.254D-03-0.297D-02 0.373D-01-0.426D-01
 Coeff-Com:  0.646D-02-0.631D-02 0.109D-01 0.992D-02-0.176D-01-0.548D-02
 Coeff-Com:  0.542D-01-0.781D-01-0.893D-01 0.441D+00-0.105D+01 0.174D+01
 Coeff:      0.684D-04 0.470D-04 0.254D-03-0.297D-02 0.373D-01-0.426D-01
 Coeff:      0.646D-02-0.631D-02 0.109D-01 0.992D-02-0.176D-01-0.548D-02
 Coeff:      0.542D-01-0.781D-01-0.893D-01 0.441D+00-0.105D+01 0.174D+01
 Gap=     0.113 Goal=     0.100 Shift=    0.000
 RMSDP=5.92D-05 MaxDP=4.07D-04 DE=-3.99D-06 OVMax= 1.27D-03

 Cycle  19  Pass 1  IDiag  3:
 E= -1.63644795650839     Delta-E=       -0.000001833839 Rises=F Damp=F
 DIIS: error= 2.20D-05 at cycle  19 NSaved=  19.
 NSaved=19 IEnMin=19 EnMin= -1.63644795650839     IErMin=19 ErrMin= 2.20D-05
 ErrMax= 2.20D-05  0.00D+00 EMaxC= 1.00D+00 BMatC= 3.57D-08 BMatP= 9.08D-08
 IDIUse=1 WtCom= 1.00D+00 WtEn= 0.00D+00
 Coeff-Com:  0.132D-03-0.111D-03-0.176D-03 0.771D-03-0.615D-02 0.500D-02
 Coeff-Com:  0.125D-02 0.118D-01-0.867D-02-0.218D-01 0.311D-01 0.682D-02
 Coeff-Com: -0.863D-01 0.126D+00-0.951D-01-0.566D-01 0.374D+00-0.129D+01
 Coeff-Com:  0.201D+01
 Coeff:      0.132D-03-0.111D-03-0.176D-03 0.771D-03-0.615D-02 0.500D-02
 Coeff:      0.125D-02 0.118D-01-0.867D-02-0.218D-01 0.311D-01 0.682D-02
 Coeff:     -0.863D-01 0.126D+00-0.951D-01-0.566D-01 0.374D+00-0.129D+01
 Coeff:      0.201D+01
 Gap=     0.113 Goal=     0.100 Shift=    0.000
 RMSDP=5.68D-05 MaxDP=4.42D-04 DE=-1.83D-06 OVMax= 1.24D-03

 Cycle  20  Pass 1  IDiag  3:
 E= -1.63644900962015     Delta-E=       -0.000001053112 Rises=F Damp=F
 DIIS: error= 1.32D-05 at cycle  20 NSaved=  20.
 NSaved=20 IEnMin=20 EnMin= -1.63644900962015     IErMin=20 ErrMin= 1.32D-05
 ErrMax= 1.32D-05  0.00D+00 EMaxC= 1.00D+00 BMatC= 1.65D-08 BMatP= 3.57D-08
 IDIUse=1 WtCom= 1.00D+00 WtEn= 0.00D+00
 Coeff-Com:  0.676D-04-0.117D-03-0.536D-04-0.204D-03 0.507D-02-0.686D-02
 Coeff-Com:  0.230D-02-0.178D-02-0.347D-02 0.136D-01-0.106D-01-0.780D-02
 Coeff-Com:  0.306D-01-0.367D-01 0.905D-01-0.153D+00 0.683D-01 0.315D+00
 Coeff-Com: -0.122D+01 0.191D+01
 Coeff:      0.676D-04-0.117D-03-0.536D-04-0.204D-03 0.507D-02-0.686D-02
 Coeff:      0.230D-02-0.178D-02-0.347D-02 0.136D-01-0.106D-01-0.780D-02
 Coeff:      0.306D-01-0.367D-01 0.905D-01-0.153D+00 0.683D-01 0.315D+00
 Coeff:     -0.122D+01 0.191D+01
 Gap=     0.113 Goal=     0.100 Shift=    0.000
 RMSDP=4.26D-05 MaxDP=3.62D-04 DE=-1.05D-06 OVMax= 1.07D-03

 Cycle  21  Pass 1  IDiag  3:
 E= -1.63644953332863     Delta-E=       -0.000000523708 Rises=F Damp=F
 DIIS: error= 1.06D-05 at cycle  21 NSaved=  20.
 NSaved=20 IEnMin=20 EnMin= -1.63644953332863     IErMin=20 ErrMin= 1.06D-05
 ErrMax= 1.06D-05  0.00D+00 EMaxC= 1.00D+00 BMatC= 8.29D-09 BMatP= 1.65D-08
 IDIUse=1 WtCom= 1.00D+00 WtEn= 0.00D+00
 Coeff-Com:  0.344D-05-0.382D-04 0.288D-03-0.159D-02 0.171D-02-0.510D-03
 Coeff-Com:  0.419D-03-0.671D-03 0.886D-03-0.519D-02 0.857D-02-0.816D-02
 Coeff-Com:  0.121D-01-0.324D-01 0.700D-01-0.916D-01-0.805D-01 0.532D+00
 Coeff-Com: -0.133D+01 0.192D+01
 Coeff:      0.344D-05-0.382D-04 0.288D-03-0.159D-02 0.171D-02-0.510D-03
 Coeff:      0.419D-03-0.671D-03 0.886D-03-0.519D-02 0.857D-02-0.816D-02
 Coeff:      0.121D-01-0.324D-01 0.700D-01-0.916D-01-0.805D-01 0.532D+00
 Coeff:     -0.133D+01 0.192D+01
 Gap=     0.113 Goal=     0.100 Shift=    0.000
 RMSDP=3.09D-05 MaxDP=2.95D-04 DE=-5.24D-07 OVMax= 8.39D-04

 Cycle  22  Pass 1  IDiag  3:
 E= -1.63644983051444     Delta-E=       -0.000000297186 Rises=F Damp=F
 DIIS: error= 8.45D-06 at cycle  22 NSaved=  20.
 NSaved=20 IEnMin=20 EnMin= -1.63644983051444     IErMin=20 ErrMin= 8.45D-06
 ErrMax= 8.45D-06  0.00D+00 EMaxC= 1.00D+00 BMatC= 5.29D-09 BMatP= 8.29D-09
 IDIUse=1 WtCom= 1.00D+00 WtEn= 0.00D+00
 Coeff-Com: -0.171D-04 0.899D-04-0.126D-02 0.109D-02 0.269D-03 0.954D-03
 Coeff-Com: -0.207D-02 0.109D-02 0.431D-03 0.148D-02-0.830D-02 0.973D-02
 Coeff-Com:  0.161D-02-0.204D-01 0.568D-01-0.791D-01 0.153D-01 0.239D+00
 Coeff-Com: -0.107D+01 0.185D+01
 Coeff:     -0.171D-04 0.899D-04-0.126D-02 0.109D-02 0.269D-03 0.954D-03
 Coeff:     -0.207D-02 0.109D-02 0.431D-03 0.148D-02-0.830D-02 0.973D-02
 Coeff:      0.161D-02-0.204D-01 0.568D-01-0.791D-01 0.153D-01 0.239D+00
 Coeff:     -0.107D+01 0.185D+01
 Gap=     0.113 Goal=     0.100 Shift=    0.000
 RMSDP=2.49D-05 MaxDP=2.45D-04 DE=-2.97D-07 OVMax= 7.66D-04

 Cycle  23  Pass 1  IDiag  3:
 E= -1.63645004237804     Delta-E=       -0.000000211864 Rises=F Damp=F
 DIIS: error= 6.89D-06 at cycle  23 NSaved=  20.
 NSaved=20 IEnMin=20 EnMin= -1.63645004237804     IErMin=20 ErrMin= 6.89D-06
 ErrMax= 6.89D-06  0.00D+00 EMaxC= 1.00D+00 BMatC= 4.33D-09 BMatP= 5.29D-09
 IDIUse=1 WtCom= 1.00D+00 WtEn= 0.00D+00
 Coeff-Com:  0.107D-03-0.162D-02 0.166D-02-0.263D-04 0.102D-03-0.220D-03
 Coeff-Com:  0.437D-03-0.948D-03 0.113D-02-0.341D-02 0.617D-02-0.419D-02
 Coeff-Com: -0.289D-02 0.587D-02-0.199D-01 0.572D-01-0.193D-01-0.291D-01
 Coeff-Com: -0.534D+00 0.154D+01
 Coeff:      0.107D-03-0.162D-02 0.166D-02-0.263D-04 0.102D-03-0.220D-03
 Coeff:      0.437D-03-0.948D-03 0.113D-02-0.341D-02 0.617D-02-0.419D-02
 Coeff:     -0.289D-02 0.587D-02-0.199D-01 0.572D-01-0.193D-01-0.291D-01
 Coeff:     -0.534D+00 0.154D+01
 Gap=     0.113 Goal=     0.100 Shift=    0.000
 RMSDP=1.87D-05 MaxDP=1.72D-04 DE=-2.12D-07 OVMax= 6.11D-04

 Cycle  24  Pass 1  IDiag  3:
 E= -1.63645020229541     Delta-E=       -0.000000159917 Rises=F Damp=F
 DIIS: error= 6.06D-06 at cycle  24 NSaved=  20.
 NSaved=20 IEnMin=20 EnMin= -1.63645020229541     IErMin=20 ErrMin= 6.06D-06
 ErrMax= 6.06D-06  0.00D+00 EMaxC= 1.00D+00 BMatC= 3.85D-09 BMatP= 4.33D-09
 IDIUse=1 WtCom= 1.00D+00 WtEn= 0.00D+00
 Coeff-Com: -0.528D-03 0.319D-03 0.379D-03 0.447D-03-0.687D-03-0.264D-03
 Coeff-Com:  0.149D-02 0.265D-03-0.744D-02 0.106D-01-0.610D-02 0.156D-03
 Coeff-Com:  0.704D-02-0.104D-01 0.201D-02 0.481D-01-0.861D-01 0.183D-01
 Coeff-Com: -0.393D+00 0.142D+01
 Coeff:     -0.528D-03 0.319D-03 0.379D-03 0.447D-03-0.687D-03-0.264D-03
 Coeff:      0.149D-02 0.265D-03-0.744D-02 0.106D-01-0.610D-02 0.156D-03
 Coeff:      0.704D-02-0.104D-01 0.201D-02 0.481D-01-0.861D-01 0.183D-01
 Coeff:     -0.393D+00 0.142D+01
 Gap=     0.113 Goal=     0.100 Shift=    0.000
 RMSDP=1.53D-05 MaxDP=1.25D-04 DE=-1.60D-07 OVMax= 5.02D-04

 Cycle  25  Pass 1  IDiag  3:
 E= -1.63645033588085     Delta-E=       -0.000000133585 Rises=F Damp=F
 DIIS: error= 6.26D-06 at cycle  25 NSaved=  20.
 NSaved=20 IEnMin=20 EnMin= -1.63645033588085     IErMin=19 ErrMin= 6.06D-06
 ErrMax= 6.26D-06  0.00D+00 EMaxC= 1.00D+00 BMatC= 3.68D-09 BMatP= 3.85D-09
 IDIUse=1 WtCom= 1.00D+00 WtEn= 0.00D+00
 Coeff-Com: -0.379D-03 0.506D-03-0.885D-04-0.143D-03 0.200D-04 0.485D-03
 Coeff-Com:  0.859D-03-0.539D-02 0.728D-02-0.694D-02 0.734D-02-0.314D-02
 Coeff-Com: -0.774D-02 0.221D-01-0.187D-01-0.192D-02 0.852D-01-0.302D+00
 Coeff-Com:  0.668D-01 0.116D+01
 Coeff:     -0.379D-03 0.506D-03-0.885D-04-0.143D-03 0.200D-04 0.485D-03
 Coeff:      0.859D-03-0.539D-02 0.728D-02-0.694D-02 0.734D-02-0.314D-02
 Coeff:     -0.774D-02 0.221D-01-0.187D-01-0.192D-02 0.852D-01-0.302D+00
 Coeff:      0.668D-01 0.116D+01
 Gap=     0.113 Goal=     0.100 Shift=    0.000
 RMSDP=1.27D-05 MaxDP=9.70D-05 DE=-1.34D-07 OVMax= 4.17D-04

 Cycle  26  Pass 1  IDiag  3:
 E= -1.63645044832208     Delta-E=       -0.000000112441 Rises=F Damp=F
 DIIS: error= 6.41D-06 at cycle  26 NSaved=  20.
 NSaved=20 IEnMin=20 EnMin= -1.63645044832208     IErMin=18 ErrMin= 6.06D-06
 ErrMax= 6.41D-06  0.00D+00 EMaxC= 1.00D+00 BMatC= 3.63D-09 BMatP= 3.68D-09
 IDIUse=1 WtCom= 1.00D+00 WtEn= 0.00D+00
 Coeff-Com: -0.279D-05-0.402D-03 0.355D-03 0.116D-03 0.131D-03 0.145D-02
 Coeff-Com: -0.537D-02 0.690D-02-0.757D-02 0.800D-02-0.432D-02-0.328D-02
 Coeff-Com:  0.838D-02 0.396D-03-0.289D-01 0.109D+00-0.176D+00 0.154D-02
 Coeff-Com:  0.259D+00 0.831D+00
 Coeff:     -0.279D-05-0.402D-03 0.355D-03 0.116D-03 0.131D-03 0.145D-02
 Coeff:     -0.537D-02 0.690D-02-0.757D-02 0.800D-02-0.432D-02-0.328D-02
 Coeff:      0.838D-02 0.396D-03-0.289D-01 0.109D+00-0.176D+00 0.154D-02
 Coeff:      0.259D+00 0.831D+00
 Gap=     0.113 Goal=     0.100 Shift=    0.000
 RMSDP=8.67D-06 MaxDP=7.06D-05 DE=-1.12D-07 OVMax= 2.75D-04

 Cycle  27  Pass 1  IDiag  3:
 E= -1.63645052559474     Delta-E=       -0.000000077273 Rises=F Damp=F
 DIIS: error= 6.57D-06 at cycle  27 NSaved=  20.
 NSaved=20 IEnMin=20 EnMin= -1.63645052559474     IErMin=17 ErrMin= 6.06D-06
 ErrMax= 6.57D-06  0.00D+00 EMaxC= 1.00D+00 BMatC= 3.59D-09 BMatP= 3.63D-09
 IDIUse=1 WtCom= 1.00D+00 WtEn= 0.00D+00
 Coeff-Com: -0.911D-04-0.707D-04 0.190D-03 0.251D-03 0.108D-02-0.465D-02
 Coeff-Com:  0.626D-02-0.549D-02 0.466D-02-0.179D-02-0.268D-02-0.435D-02
 Coeff-Com:  0.312D-01-0.703D-01 0.108D+00-0.104D+00 0.126D+00 0.503D-01
 Coeff-Com: -0.189D+00 0.105D+01
 Coeff:     -0.911D-04-0.707D-04 0.190D-03 0.251D-03 0.108D-02-0.465D-02
 Coeff:      0.626D-02-0.549D-02 0.466D-02-0.179D-02-0.268D-02-0.435D-02
 Coeff:      0.312D-01-0.703D-01 0.108D+00-0.104D+00 0.126D+00 0.503D-01
 Coeff:     -0.189D+00 0.105D+01
 Gap=     0.113 Goal=     0.100 Shift=    0.000
 RMSDP=7.13D-06 MaxDP=5.90D-05 DE=-7.73D-08 OVMax= 2.19D-04

 Cycle  28  Pass 1  IDiag  3:
 E= -1.63645058909981     Delta-E=       -0.000000063505 Rises=F Damp=F
 DIIS: error= 6.69D-06 at cycle  28 NSaved=  20.
 NSaved=20 IEnMin=20 EnMin= -1.63645058909981     IErMin=16 ErrMin= 6.06D-06
 ErrMax= 6.69D-06  0.00D+00 EMaxC= 1.00D+00 BMatC= 3.60D-09 BMatP= 3.59D-09
 IDIUse=1 WtCom= 1.00D+00 WtEn= 0.00D+00
 Coeff-Com: -0.156D-03 0.121D-03 0.345D-03 0.111D-02-0.484D-02 0.638D-02
 Coeff-Com: -0.540D-02 0.433D-02-0.923D-03-0.398D-02-0.206D-02 0.276D-01
 Coeff-Com: -0.682D-01 0.105D+00-0.103D+00 0.138D+00 0.853D-01-0.212D+00
 Coeff-Com:  0.768D+00 0.265D+00
 Coeff:     -0.156D-03 0.121D-03 0.345D-03 0.111D-02-0.484D-02 0.638D-02
 Coeff:     -0.540D-02 0.433D-02-0.923D-03-0.398D-02-0.206D-02 0.276D-01
 Coeff:     -0.682D-01 0.105D+00-0.103D+00 0.138D+00 0.853D-01-0.212D+00
 Coeff:      0.768D+00 0.265D+00
 Gap=     0.113 Goal=     0.100 Shift=    0.000
 RMSDP=2.37D-06 MaxDP=2.05D-05 DE=-6.35D-08 OVMax= 6.36D-05

 Cycle  29  Pass 1  IDiag  3:
 E= -1.63645060950728     Delta-E=       -0.000000020407 Rises=F Damp=F
 DIIS: error= 6.89D-06 at cycle  29 NSaved=  20.
 NSaved=20 IEnMin=20 EnMin= -1.63645060950728     IErMin=15 ErrMin= 6.06D-06
 ErrMax= 6.89D-06  0.00D+00 EMaxC= 1.00D+00 BMatC= 3.59D-09 BMatP= 3.59D-09
 IDIUse=1 WtCom= 1.00D+00 WtEn= 0.00D+00
 Coeff-Com: -0.297D-03 0.633D-03 0.122D-02-0.451D-02 0.532D-02-0.569D-02
 Coeff-Com:  0.675D-02-0.281D-02-0.988D-02 0.114D-01 0.183D-02-0.204D-01
 Coeff-Com:  0.370D-01-0.619D-01 0.130D+00 0.170D+00 0.114D+00 0.433D+00
 Coeff-Com: -0.107D+01 0.127D+01
 Coeff:     -0.297D-03 0.633D-03 0.122D-02-0.451D-02 0.532D-02-0.569D-02
 Coeff:      0.675D-02-0.281D-02-0.988D-02 0.114D-01 0.183D-02-0.204D-01
 Coeff:      0.370D-01-0.619D-01 0.130D+00 0.170D+00 0.114D+00 0.433D+00
 Coeff:     -0.107D+01 0.127D+01
 Gap=     0.113 Goal=     0.100 Shift=    0.000
 RMSDP=1.01D-06 MaxDP=9.22D-06 DE=-2.04D-08 OVMax= 3.01D-05

 Cycle  30  Pass 1  IDiag  3:
 E= -1.63645060263030     Delta-E=        0.000000006877 Rises=F Damp=F
 DIIS: error= 7.08D-06 at cycle  30 NSaved=  20.
 NSaved=20 IEnMin=19 EnMin= -1.63645060950728     IErMin=14 ErrMin= 6.06D-06
 ErrMax= 7.08D-06  0.00D+00 EMaxC= 1.00D+00 BMatC= 3.60D-09 BMatP= 3.59D-09
 IDIUse=1 WtCom= 1.00D+00 WtEn= 0.00D+00
 Coeff-Com: -0.349D-04 0.332D-03-0.528D-04-0.494D-03 0.452D-03 0.244D-02
 Coeff-Com: -0.872D-02 0.114D-01-0.182D-01 0.271D-01-0.229D-01 0.226D-01
 Coeff-Com: -0.611D-01 0.117D+00 0.130D+00 0.622D-01 0.104D+01-0.466D+00
 Coeff-Com: -0.190D+01 0.207D+01
 Coeff:     -0.349D-04 0.332D-03-0.528D-04-0.494D-03 0.452D-03 0.244D-02
 Coeff:     -0.872D-02 0.114D-01-0.182D-01 0.271D-01-0.229D-01 0.226D-01
 Coeff:     -0.611D-01 0.117D+00 0.130D+00 0.622D-01 0.104D+01-0.466D+00
 Coeff:     -0.190D+01 0.207D+01
 Gap=     0.113 Goal=     0.100 Shift=    0.000
 RMSDP=4.80D-06 MaxDP=3.81D-05 DE= 6.88D-09 OVMax= 1.56D-04

 Cycle  31  Pass 1  IDiag  3:
 E= -1.63645056025757     Delta-E=        0.000000042373 Rises=F Damp=F
 DIIS: error= 7.26D-06 at cycle  31 NSaved=  20.
 NSaved=20 IEnMin=18 EnMin= -1.63645060950728     IErMin=13 ErrMin= 6.06D-06
 ErrMax= 7.26D-06  0.00D+00 EMaxC= 1.00D+00 BMatC= 3.60D-09 BMatP= 3.59D-09
 IDIUse=1 WtCom= 1.00D+00 WtEn= 0.00D+00
 Coeff-Com:  0.347D-03 0.948D-03-0.130D-02-0.298D-02 0.102D-01-0.129D-01
 Coeff-Com:  0.114D-01-0.258D-01 0.298D-01-0.941D-02 0.159D-01-0.450D-01
 Coeff-Com:  0.530D-01 0.110D+00 0.374D+00 0.693D+00-0.857D+00 0.357D+01
 Coeff-Com: -0.741D+01 0.450D+01
 Coeff:      0.347D-03 0.948D-03-0.130D-02-0.298D-02 0.102D-01-0.129D-01
 Coeff:      0.114D-01-0.258D-01 0.298D-01-0.941D-02 0.159D-01-0.450D-01
 Coeff:      0.530D-01 0.110D+00 0.374D+00 0.693D+00-0.857D+00 0.357D+01
 Coeff:     -0.741D+01 0.450D+01
 Gap=     0.113 Goal=     0.100 Shift=    0.000
 RMSDP=1.47D-05 MaxDP=1.19D-04 DE= 4.24D-08 OVMax= 4.80D-04

 Cycle  32  Pass 1  IDiag  3:
 E= -1.63645043110370     Delta-E=        0.000000129154 Rises=F Damp=F
 DIIS: error= 7.67D-06 at cycle  32 NSaved=  20.
 NSaved=20 IEnMin=17 EnMin= -1.63645060950728     IErMin=12 ErrMin= 6.06D-06
 ErrMax= 7.67D-06  0.00D+00 EMaxC= 1.00D+00 BMatC= 3.66D-09 BMatP= 3.59D-09
 IDIUse=1 WtCom= 1.00D+00 WtEn= 0.00D+00
 Coeff-Com:  0.240D-02-0.391D-02 0.299D-03 0.748D-02-0.677D-02 0.116D-02
 Coeff-Com: -0.227D-01 0.288D-01 0.271D-01-0.812D-01 0.647D-01 0.142D+00
 Coeff-Com:  0.577D-01 0.489D+00 0.755D+00-0.797D+00 0.281D+01-0.267D+01
 Coeff-Com: -0.213D+01 0.233D+01
 Coeff:      0.240D-02-0.391D-02 0.299D-03 0.748D-02-0.677D-02 0.116D-02
 Coeff:     -0.227D-01 0.288D-01 0.271D-01-0.812D-01 0.647D-01 0.142D+00
 Coeff:      0.577D-01 0.489D+00 0.755D+00-0.797D+00 0.281D+01-0.267D+01
 Coeff:     -0.213D+01 0.233D+01
 Gap=     0.113 Goal=     0.100 Shift=    0.000
 RMSDP=2.02D-05 MaxDP=1.64D-04 DE= 1.29D-07 OVMax= 6.63D-04

 Cycle  33  Pass 1  IDiag  3:
 E= -1.63645025633878     Delta-E=        0.000000174765 Rises=F Damp=F
 DIIS: error= 7.74D-06 at cycle  33 NSaved=  20.
 NSaved=20 IEnMin=16 EnMin= -1.63645060950728     IErMin=11 ErrMin= 6.06D-06
 ErrMax= 7.74D-06  0.00D+00 EMaxC= 1.00D+00 BMatC= 3.72D-09 BMatP= 3.59D-09
 IDIUse=1 WtCom= 1.00D+00 WtEn= 0.00D+00
 Coeff-Com:  0.354D-03-0.589D-02 0.161D-01-0.177D-01 0.131D-02-0.918D-02
 Coeff-Com:  0.143D-01 0.909D-01-0.239D+00 0.165D+00 0.210D+00 0.192D+00
 Coeff-Com:  0.286D+00 0.738D+00-0.725D+00 0.391D+01-0.524D+01 0.316D+00
 Coeff-Com: -0.199D+00 0.150D+01
 Coeff:      0.354D-03-0.589D-02 0.161D-01-0.177D-01 0.131D-02-0.918D-02
 Coeff:      0.143D-01 0.909D-01-0.239D+00 0.165D+00 0.210D+00 0.192D+00
 Coeff:      0.286D+00 0.738D+00-0.725D+00 0.391D+01-0.524D+01 0.316D+00
 Coeff:     -0.199D+00 0.150D+01
 Gap=     0.113 Goal=     0.100 Shift=    0.000
 RMSDP=2.29D-05 MaxDP=1.86D-04 DE= 1.75D-07 OVMax= 7.46D-04

 Cycle  34  Pass 1  IDiag  3:
 E= -1.63645006239807     Delta-E=        0.000000193941 Rises=F Damp=F
 DIIS: error= 7.58D-06 at cycle  34 NSaved=  20.
 NSaved=20 IEnMin=15 EnMin= -1.63645060950728     IErMin=10 ErrMin= 6.06D-06
 ErrMax= 7.58D-06  0.00D+00 EMaxC= 1.00D+00 BMatC= 3.66D-09 BMatP= 3.59D-09
 IDIUse=1 WtCom= 1.00D+00 WtEn= 0.00D+00
 Coeff-Com: -0.676D-02 0.160D-01-0.168D-01 0.157D-01-0.327D-01 0.166D-01
 Coeff-Com:  0.879D-01-0.243D+00 0.189D+00 0.281D+00 0.208D+00 0.988D-01
 Coeff-Com:  0.628D+00 0.223D+00 0.294D+01-0.455D+01 0.423D-01-0.789D+00
 Coeff-Com:  0.675D-01 0.182D+01
 Coeff:     -0.676D-02 0.160D-01-0.168D-01 0.157D-01-0.327D-01 0.166D-01
 Coeff:      0.879D-01-0.243D+00 0.189D+00 0.281D+00 0.208D+00 0.988D-01
 Coeff:      0.628D+00 0.223D+00 0.294D+01-0.455D+01 0.423D-01-0.789D+00
 Coeff:      0.675D-01 0.182D+01
 Gap=     0.113 Goal=     0.100 Shift=    0.000
 RMSDP=4.20D-05 MaxDP=3.36D-04 DE= 1.94D-07 OVMax= 1.39D-03

 Cycle  35  Pass 1  IDiag  3:
 E= -1.63644971418324     Delta-E=        0.000000348215 Rises=F Damp=F
 DIIS: error= 7.53D-06 at cycle  35 NSaved=  20.
 NSaved=20 IEnMin=14 EnMin= -1.63645060950728     IErMin= 9 ErrMin= 6.06D-06
 ErrMax= 7.53D-06  0.00D+00 EMaxC= 1.00D+00 BMatC= 4.11D-09 BMatP= 3.59D-09
 IDIUse=1 WtCom= 1.00D+00 WtEn= 0.00D+00
 Coeff-Com:  0.516D-04 0.389D-02 0.108D-01-0.686D-01 0.724D-01 0.405D-01
 Coeff-Com: -0.196D+00 0.182D+00 0.213D+00 0.171D+00 0.140D+00 0.114D+01
 Coeff-Com:  0.505D+00 0.131D+01-0.284D+01-0.586D+00-0.439D+00-0.229D+00
 Coeff-Com:  0.915D+00 0.661D+00
 Coeff:      0.516D-04 0.389D-02 0.108D-01-0.686D-01 0.724D-01 0.405D-01
 Coeff:     -0.196D+00 0.182D+00 0.213D+00 0.171D+00 0.140D+00 0.114D+01
 Coeff:      0.505D+00 0.131D+01-0.284D+01-0.586D+00-0.439D+00-0.229D+00
 Coeff:      0.915D+00 0.661D+00
 Gap=     0.113 Goal=     0.100 Shift=    0.000
 RMSDP=1.49D-05 MaxDP=1.26D-04 DE= 3.48D-07 OVMax= 4.26D-04

 Cycle  36  Pass 1  IDiag  3:
 E= -1.63644960697320     Delta-E=        0.000000107210 Rises=F Damp=F
 DIIS: error= 6.65D-06 at cycle  36 NSaved=  20.
 NSaved=20 IEnMin=13 EnMin= -1.63645060950728     IErMin= 8 ErrMin= 6.06D-06
 ErrMax= 6.65D-06  0.00D+00 EMaxC= 1.00D+00 BMatC= 3.15D-09 BMatP= 3.59D-09
 IDIUse=1 WtCom= 1.00D+00 WtEn= 0.00D+00
 Coeff-Com: -0.135D-01 0.147D-03 0.408D-01-0.962D-01 0.125D+00-0.251D+00
 Coeff-Com:  0.262D+00 0.232D+00-0.866D-01 0.137D+00 0.486D+00-0.894D+00
 Coeff-Com:  0.628D+01-0.620D+01-0.164D+01 0.108D+01-0.528D+00-0.102D+01
 Coeff-Com:  0.215D+00 0.287D+01
 Coeff:     -0.135D-01 0.147D-03 0.408D-01-0.962D-01 0.125D+00-0.251D+00
 Coeff:      0.262D+00 0.232D+00-0.866D-01 0.137D+00 0.486D+00-0.894D+00
 Coeff:      0.628D+01-0.620D+01-0.164D+01 0.108D+01-0.528D+00-0.102D+01
 Coeff:      0.215D+00 0.287D+01
 Gap=     0.113 Goal=   None    Shift=    0.000
 RMSDP=1.43D-04 MaxDP=1.13D-03 DE= 1.07D-07 OVMax= 4.81D-03

 Cycle  37  Pass 1  IDiag  1:
 E= -1.63644849722516     Delta-E=        0.000001109748 Rises=F Damp=F
 DIIS: error= 1.03D-05 at cycle  37 NSaved=  20.
 NSaved=20 IEnMin=12 EnMin= -1.63645060950728     IErMin= 7 ErrMin= 6.06D-06
 ErrMax= 1.03D-05  0.00D+00 EMaxC= 1.00D+00 BMatC= 1.18D-08 BMatP= 3.15D-09
 IDIUse=1 WtCom= 1.00D+00 WtEn= 0.00D+00
 Coeff-Com: -0.251D-01 0.494D-01-0.748D-01 0.625D-01-0.170D+00 0.233D+00
 Coeff-Com:  0.233D+00-0.783D-01 0.219D+00 0.445D+00-0.850D+00 0.641D+01
 Coeff-Com: -0.621D+01-0.165D+01 0.972D+00-0.519D+00-0.104D+01 0.181D+00
 Coeff-Com:  0.275D+01 0.636D-01
 Coeff:     -0.251D-01 0.494D-01-0.748D-01 0.625D-01-0.170D+00 0.233D+00
 Coeff:      0.233D+00-0.783D-01 0.219D+00 0.445D+00-0.850D+00 0.641D+01
 Coeff:     -0.621D+01-0.165D+01 0.972D+00-0.519D+00-0.104D+01 0.181D+00
 Coeff:      0.275D+01 0.636D-01
 RMSDP=3.42D-05 MaxDP=2.98D-04 DE= 1.11D-06 OVMax= 4.81D-03

 Cycle  38  Pass 1  IDiag  3:
 E= -1.63644840370034     Delta-E=        0.000000093525 Rises=F Damp=F
 DIIS: error= 4.91D-06 at cycle  38 NSaved=  20.
 NSaved=20 IEnMin=11 EnMin= -1.63645060950728     IErMin=20 ErrMin= 4.91D-06
 ErrMax= 4.91D-06  0.00D+00 EMaxC= 1.00D+00 BMatC= 2.54D-09 BMatP= 3.15D-09
 IDIUse=1 WtCom= 1.00D+00 WtEn= 0.00D+00
 Coeff-Com:  0.115D+00-0.340D+00 0.221D+00 0.856D-01-0.452D+00 0.238D+00
 Coeff-Com:  0.675D+00 0.357D+00-0.811D+00-0.160D+01 0.252D+01-0.179D+01
 Coeff-Com:  0.311D-01-0.126D+01 0.783D-01 0.159D+01-0.437D+00 0.573D+00
 Coeff-Com: -0.775D-01 0.129D+01
 Coeff:      0.115D+00-0.340D+00 0.221D+00 0.856D-01-0.452D+00 0.238D+00
 Coeff:      0.675D+00 0.357D+00-0.811D+00-0.160D+01 0.252D+01-0.179D+01
 Coeff:      0.311D-01-0.126D+01 0.783D-01 0.159D+01-0.437D+00 0.573D+00
 Coeff:     -0.775D-01 0.129D+01
 Gap=     0.098 Goal=   None    Shift=    0.000
 RMSDP=1.61D-04 MaxDP=1.34D-03 DE= 9.35D-08 OVMax= 6.01D-03

 Cycle  39  Pass 1  IDiag  3:
 E= -1.63644751888916     Delta-E=        0.000000884811 Rises=F Damp=F
 DIIS: error= 4.57D-06 at cycle  39 NSaved=  20.
 NSaved=20 IEnMin=10 EnMin= -1.63645060950728     IErMin=20 ErrMin= 4.57D-06
 ErrMax= 4.57D-06  0.00D+00 EMaxC= 1.00D+00 BMatC= 4.19D-09 BMatP= 2.54D-09
 IDIUse=1 WtCom= 1.00D+00 WtEn= 0.00D+00
 Coeff-Com: -0.701D-01-0.680D-02 0.158D+00-0.473D+00 0.345D+00 0.553D+00
 Coeff-Com:  0.337D+00-0.600D+00-0.187D+01 0.391D+01-0.373D+01 0.959D+00
 Coeff-Com: -0.170D+01 0.386D+00 0.148D+01-0.487D+00 0.764D+00-0.597D-01
 Coeff-Com:  0.105D+01 0.632D-01
 Coeff:     -0.701D-01-0.680D-02 0.158D+00-0.473D+00 0.345D+00 0.553D+00
 Coeff:      0.337D+00-0.600D+00-0.187D+01 0.391D+01-0.373D+01 0.959D+00
 Coeff:     -0.170D+01 0.386D+00 0.148D+01-0.487D+00 0.764D+00-0.597D-01
 Coeff:      0.105D+01 0.632D-01
 Gap=     0.098 Goal=   None    Shift=    0.000
 RMSDP=2.06D-05 MaxDP=1.62D-04 DE= 8.85D-07 OVMax= 7.51D-04

 Cycle  40  Pass 1  IDiag  3:
 E= -1.63644762642633     Delta-E=       -0.000000107537 Rises=F Damp=F
 DIIS: error= 4.36D-06 at cycle  40 NSaved=  20.
 NSaved=20 IEnMin=10 EnMin= -1.63645060950728     IErMin=20 ErrMin= 4.36D-06
 ErrMax= 4.36D-06  0.00D+00 EMaxC= 1.00D+00 BMatC= 1.99D-09 BMatP= 3.15D-09
 IDIUse=1 WtCom= 1.00D+00 WtEn= 0.00D+00
 Coeff-Com: -0.268D-01-0.343D-01 0.180D+00-0.317D+00 0.225D+00 0.363D+00
 Coeff-Com:  0.382D+00-0.772D+00-0.138D+01 0.286D+01-0.193D+01 0.671D-01
 Coeff-Com: -0.102D+01-0.137D-01 0.117D+01-0.310D+00 0.583D+00-0.475D-01
 Coeff-Com: -0.561D-01 0.108D+01
 Coeff:     -0.268D-01-0.343D-01 0.180D+00-0.317D+00 0.225D+00 0.363D+00
 Coeff:      0.382D+00-0.772D+00-0.138D+01 0.286D+01-0.193D+01 0.671D-01
 Coeff:     -0.102D+01-0.137D-01 0.117D+01-0.310D+00 0.583D+00-0.475D-01
 Coeff:     -0.561D-01 0.108D+01
 Gap=     0.098 Goal=   None    Shift=    0.000
 RMSDP=8.53D-05 MaxDP=7.14D-04 DE=-1.08D-07 OVMax= 3.18D-03

 Cycle  41  Pass 1  IDiag  3:
 E= -1.63644724773985     Delta-E=        0.000000378686 Rises=F Damp=F
 DIIS: error= 3.54D-06 at cycle  41 NSaved=  20.
 NSaved=20 IEnMin=10 EnMin= -1.63645060950728     IErMin=20 ErrMin= 3.54D-06
 ErrMax= 3.54D-06  0.00D+00 EMaxC= 1.00D+00 BMatC= 1.98D-09 BMatP= 1.99D-09
 IDIUse=1 WtCom= 1.00D+00 WtEn= 0.00D+00
 Coeff-Com: -0.139D-01-0.451D-01 0.143D+00-0.238D+00 0.181D+00 0.328D+00
 Coeff-Com:  0.140D+00-0.682D+00-0.824D+00 0.170D+01-0.142D+01 0.932D+00
 Coeff-Com: -0.148D+01 0.152D+00 0.952D+00-0.363D+00 0.571D+00-0.356D-01
 Coeff-Com:  0.636D+00 0.368D+00
 Coeff:     -0.139D-01-0.451D-01 0.143D+00-0.238D+00 0.181D+00 0.328D+00
 Coeff:      0.140D+00-0.682D+00-0.824D+00 0.170D+01-0.142D+01 0.932D+00
 Coeff:     -0.148D+01 0.152D+00 0.952D+00-0.363D+00 0.571D+00-0.356D-01
 Coeff:      0.636D+00 0.368D+00
 Gap=     0.098 Goal=   None    Shift=    0.000
 RMSDP=7.53D-06 MaxDP=6.41D-05 DE= 3.79D-07 OVMax= 2.70D-04

 Cycle  42  Pass 1  IDiag  3:
 E= -1.63644722425721     Delta-E=        0.000000023483 Rises=F Damp=F
 DIIS: error= 3.19D-06 at cycle  42 NSaved=  20.
 NSaved=20 IEnMin=10 EnMin= -1.63645060950728     IErMin=20 ErrMin= 3.19D-06
 ErrMax= 3.19D-06  0.00D+00 EMaxC= 1.00D+00 BMatC= 1.18D-09 BMatP= 1.98D-09
 IDIUse=1 WtCom= 1.00D+00 WtEn= 0.00D+00
 Coeff-Com:  0.746D-02-0.762D-02 0.101D+00-0.471D-01 0.762D-01 0.306D-01
 Coeff-Com: -0.176D+00-0.397D+00-0.189D+00-0.395D+00 0.972D+00-0.149D+00
 Coeff-Com: -0.151D+00-0.862D-01 0.778D+00-0.110D+00-0.751D+00-0.334D-01
 Coeff-Com: -0.292D+00 0.182D+01
 Coeff:      0.746D-02-0.762D-02 0.101D+00-0.471D-01 0.762D-01 0.306D-01
 Coeff:     -0.176D+00-0.397D+00-0.189D+00-0.395D+00 0.972D+00-0.149D+00
 Coeff:     -0.151D+00-0.862D-01 0.778D+00-0.110D+00-0.751D+00-0.334D-01
 Coeff:     -0.292D+00 0.182D+01
 Gap=     0.098 Goal=   None    Shift=    0.000
 RMSDP=2.10D-04 MaxDP=1.76D-03 DE= 2.35D-08 OVMax= 7.83D-03

 Cycle  43  Pass 1  IDiag  3:
 E= -1.63644659166744     Delta-E=        0.000000632590 Rises=F Damp=F
 DIIS: error= 5.30D-06 at cycle  43 NSaved=  20.
 NSaved=20 IEnMin=10 EnMin= -1.63645060950728     IErMin=19 ErrMin= 3.19D-06
 ErrMax= 5.30D-06  0.00D+00 EMaxC= 1.00D+00 BMatC= 4.58D-09 BMatP= 1.18D-09
 IDIUse=1 WtCom= 1.00D+00 WtEn= 0.00D+00
 Coeff-Com:  0.105D-01-0.185D-01 0.113D+00-0.654D-01 0.622D-01 0.696D-01
 Coeff-Com: -0.206D+00-0.446D+00-0.141D+00-0.699D+00 0.103D+01 0.388D+00
 Coeff-Com: -0.518D+00-0.270D-03 0.817D+00-0.164D+00-0.727D+00-0.383D-01
 Coeff-Com:  0.158D+01-0.444D-01
 Coeff:      0.105D-01-0.185D-01 0.113D+00-0.654D-01 0.622D-01 0.696D-01
 Coeff:     -0.206D+00-0.446D+00-0.141D+00-0.699D+00 0.103D+01 0.388D+00
 Coeff:     -0.518D+00-0.270D-03 0.817D+00-0.164D+00-0.727D+00-0.383D-01
 Coeff:      0.158D+01-0.444D-01
 Gap=     0.098 Goal=   None    Shift=    0.000
 RMSDP=1.34D-05 MaxDP=1.05D-04 DE= 6.33D-07 OVMax= 4.67D-04

 Cycle  44  Pass 1  IDiag  3:
 E= -1.63644662247441     Delta-E=       -0.000000030807 Rises=F Damp=F
 DIIS: error= 5.25D-06 at cycle  44 NSaved=  20.
 NSaved=20 IEnMin=10 EnMin= -1.63645060950728     IErMin=20 ErrMin= 5.25D-06
 ErrMax= 5.25D-06  0.00D+00 EMaxC= 1.00D+00 BMatC= 2.31D-09 BMatP= 3.15D-09
 IDIUse=1 WtCom= 1.00D+00 WtEn= 0.00D+00
 Coeff-Com: -0.410D-01-0.483D-01 0.201D+00-0.422D+00 0.261D+00 0.474D+00
 Coeff-Com:  0.381D+00-0.773D+00-0.163D+01 0.380D+01-0.305D+01 0.881D+00
 Coeff-Com: -0.177D+01 0.253D+00 0.143D+01-0.401D+00 0.807D+00-0.614D-01
 Coeff-Com:  0.626D-01 0.642D+00
 Coeff:     -0.410D-01-0.483D-01 0.201D+00-0.422D+00 0.261D+00 0.474D+00
 Coeff:      0.381D+00-0.773D+00-0.163D+01 0.380D+01-0.305D+01 0.881D+00
 Coeff:     -0.177D+01 0.253D+00 0.143D+01-0.401D+00 0.807D+00-0.614D-01
 Coeff:      0.626D-01 0.642D+00
 Gap=     0.098 Goal=   None    Shift=    0.000
 RMSDP=1.08D-04 MaxDP=8.85D-04 DE=-3.08D-08 OVMax= 4.01D-03

 Cycle  45  Pass 1  IDiag  3:
 E= -1.63644691031743     Delta-E=       -0.000000287843 Rises=F Damp=F
 DIIS: error= 3.63D-06 at cycle  45 NSaved=  20.
 NSaved=20 IEnMin=10 EnMin= -1.63645060950728     IErMin=20 ErrMin= 3.63D-06
 ErrMax= 3.63D-06  0.00D+00 EMaxC= 1.00D+00 BMatC= 1.93D-09 BMatP= 2.31D-09
 IDIUse=1 WtCom= 1.00D+00 WtEn= 0.00D+00
 Coeff-Com: -0.308D-01 0.310D-01 0.707D-01-0.212D+00 0.214D+00 0.192D+00
 Coeff-Com:  0.229D+00-0.443D+00-0.109D+01 0.290D+01-0.232D+01 0.221D+00
 Coeff-Com: -0.530D+00-0.218D+00 0.913D+00 0.145D-01 0.124D+00-0.438D-01
 Coeff-Com:  0.516D+00 0.461D+00
 Coeff:     -0.308D-01 0.310D-01 0.707D-01-0.212D+00 0.214D+00 0.192D+00
 Coeff:      0.229D+00-0.443D+00-0.109D+01 0.290D+01-0.232D+01 0.221D+00
 Coeff:     -0.530D+00-0.218D+00 0.913D+00 0.145D-01 0.124D+00-0.438D-01
 Coeff:      0.516D+00 0.461D+00
 Gap=     0.098 Goal=   None    Shift=    0.000
 RMSDP=8.62D-05 MaxDP=7.15D-04 DE=-2.88D-07 OVMax= 3.20D-03

 Cycle  46  Pass 1  IDiag  3:
 E= -1.63644668656502     Delta-E=        0.000000223752 Rises=F Damp=F
 DIIS: error= 3.61D-06 at cycle  46 NSaved=  20.
 NSaved=20 IEnMin=10 EnMin= -1.63645060950728     IErMin=20 ErrMin= 3.61D-06
 ErrMax= 3.61D-06  0.00D+00 EMaxC= 1.00D+00 BMatC= 8.12D-10 BMatP= 1.93D-09
 IDIUse=1 WtCom= 1.00D+00 WtEn= 0.00D+00
 Coeff-Com:  0.530D-02 0.626D-01-0.152D+00 0.173D+00 0.175D+00-0.109D+00
 Coeff-Com: -0.419D+00-0.332D+00 0.767D+00-0.735D+00 0.925D+00 0.503D-01
 Coeff-Com: -0.380D-01-0.314D+00-0.368D-01 0.210D+00-0.366D+00-0.606D-02
 Coeff-Com: -0.167D+00 0.130D+01
 Coeff:      0.530D-02 0.626D-01-0.152D+00 0.173D+00 0.175D+00-0.109D+00
 Coeff:     -0.419D+00-0.332D+00 0.767D+00-0.735D+00 0.925D+00 0.503D-01
 Coeff:     -0.380D-01-0.314D+00-0.368D-01 0.210D+00-0.366D+00-0.606D-02
 Coeff:     -0.167D+00 0.130D+01
 Gap=     0.098 Goal=   None    Shift=    0.000
 RMSDP=7.21D-05 MaxDP=6.02D-04 DE= 2.24D-07 OVMax= 2.67D-03

 Cycle  47  Pass 1  IDiag  3:
 E= -1.63644655813385     Delta-E=        0.000000128431 Rises=F Damp=F
 DIIS: error= 3.20D-06 at cycle  47 NSaved=  20.
 NSaved=20 IEnMin=10 EnMin= -1.63645060950728     IErMin=20 ErrMin= 3.20D-06
 ErrMax= 3.20D-06  0.00D+00 EMaxC= 1.00D+00 BMatC= 8.82D-10 BMatP= 8.12D-10
 IDIUse=1 WtCom= 1.00D+00 WtEn= 0.00D+00
 Coeff-Com:  0.287D-02 0.969D-01-0.233D+00 0.264D+00 0.101D+00-0.119D+00
 Coeff-Com: -0.466D+00-0.117D+00 0.106D+01-0.211D+01 0.247D+01-0.542D+00
 Coeff-Com:  0.228D+00-0.369D+00-0.189D+00 0.193D+00-0.431D+00 0.115D-01
 Coeff-Com:  0.667D+00 0.481D+00
 Coeff:      0.287D-02 0.969D-01-0.233D+00 0.264D+00 0.101D+00-0.119D+00
 Coeff:     -0.466D+00-0.117D+00 0.106D+01-0.211D+01 0.247D+01-0.542D+00
 Coeff:      0.228D+00-0.369D+00-0.189D+00 0.193D+00-0.431D+00 0.115D-01
 Coeff:      0.667D+00 0.481D+00
 Gap=     0.098 Goal=   None    Shift=    0.000
 RMSDP=1.42D-05 MaxDP=1.19D-04 DE= 1.28D-07 OVMax= 5.19D-04

 Cycle  48  Pass 1  IDiag  3:
 E= -1.63644654251601     Delta-E=        0.000000015618 Rises=F Damp=F
 DIIS: error= 2.59D-06 at cycle  48 NSaved=  20.
 NSaved=20 IEnMin=10 EnMin= -1.63645060950728     IErMin=20 ErrMin= 2.59D-06
 ErrMax= 2.59D-06  0.00D+00 EMaxC= 1.00D+00 BMatC= 4.35D-10 BMatP= 8.82D-10
 IDIUse=1 WtCom= 1.00D+00 WtEn= 0.00D+00
 Coeff-Com: -0.122D-01 0.744D-01-0.145D+00 0.190D+00-0.524D-01-0.701D-02
 Coeff-Com: -0.268D+00 0.180D+00 0.631D+00-0.168D+01 0.161D+01-0.761D+00
 Coeff-Com:  0.704D+00-0.828D-01-0.266D+00 0.138D+00-0.379D+00-0.588D-02
 Coeff-Com: -0.185D+00 0.132D+01
 Coeff:     -0.122D-01 0.744D-01-0.145D+00 0.190D+00-0.524D-01-0.701D-02
 Coeff:     -0.268D+00 0.180D+00 0.631D+00-0.168D+01 0.161D+01-0.761D+00
 Coeff:      0.704D+00-0.828D-01-0.266D+00 0.138D+00-0.379D+00-0.588D-02
 Coeff:     -0.185D+00 0.132D+01
 Gap=     0.098 Goal=   None    Shift=    0.000
 RMSDP=6.48D-05 MaxDP=5.47D-04 DE= 1.56D-08 OVMax= 2.40D-03

 Cycle  49  Pass 1  IDiag  3:
 E= -1.63644647951600     Delta-E=        0.000000063000 Rises=F Damp=F
 DIIS: error= 2.72D-06 at cycle  49 NSaved=  20.
 NSaved=20 IEnMin=10 EnMin= -1.63645060950728     IErMin=19 ErrMin= 2.59D-06
 ErrMax= 2.72D-06  0.00D+00 EMaxC= 1.00D+00 BMatC= 6.54D-10 BMatP= 4.35D-10
 IDIUse=1 WtCom= 1.00D+00 WtEn= 0.00D+00
 Coeff-Com: -0.104D-01 0.827D-01-0.176D+00 0.211D+00-0.430D-01-0.160D-02
 Coeff-Com: -0.313D+00 0.153D+00 0.761D+00-0.220D+01 0.229D+01-0.786D+00
 Coeff-Com:  0.500D+00-0.741D-01-0.230D+00 0.930D-01-0.384D+00 0.178D-02
 Coeff-Com:  0.101D+01 0.114D+00
 Coeff:     -0.104D-01 0.827D-01-0.176D+00 0.211D+00-0.430D-01-0.160D-02
 Coeff:     -0.313D+00 0.153D+00 0.761D+00-0.220D+01 0.229D+01-0.786D+00
 Coeff:      0.500D+00-0.741D-01-0.230D+00 0.930D-01-0.384D+00 0.178D-02
 Coeff:      0.101D+01 0.114D+00
 Gap=     0.098 Goal=   None    Shift=    0.000
 RMSDP=4.86D-06 MaxDP=3.95D-05 DE= 6.30D-08 OVMax= 1.75D-04

 Cycle  50  Pass 1  IDiag  3:
 E= -1.63644648500542     Delta-E=       -0.000000005489 Rises=F Damp=F
 DIIS: error= 1.93D-06 at cycle  50 NSaved=  20.
 NSaved=20 IEnMin=10 EnMin= -1.63645060950728     IErMin=20 ErrMin= 1.93D-06
 ErrMax= 1.93D-06  0.00D+00 EMaxC= 1.00D+00 BMatC= 2.19D-10 BMatP= 6.54D-10
 IDIUse=1 WtCom= 1.00D+00 WtEn= 0.00D+00
 Coeff-Com: -0.165D-01 0.426D-01-0.401D-01-0.212D-01 0.318D-01 0.937D-01
 Coeff-Com: -0.716D-01-0.174D+00 0.575D-01-0.195D+00 0.281D+00-0.300D-01
 Coeff-Com:  0.367D-02 0.142D-03 0.310D+00-0.912D-02-0.326D+00-0.242D-01
 Coeff-Com: -0.114D+00 0.120D+01
 Coeff:     -0.165D-01 0.426D-01-0.401D-01-0.212D-01 0.318D-01 0.937D-01
 Coeff:     -0.716D-01-0.174D+00 0.575D-01-0.195D+00 0.281D+00-0.300D-01
 Coeff:      0.367D-02 0.142D-03 0.310D+00-0.912D-02-0.326D+00-0.242D-01
 Coeff:     -0.114D+00 0.120D+01
 Gap=     0.098 Goal=   None    Shift=    0.000
 RMSDP=4.61D-05 MaxDP=3.93D-04 DE=-5.49D-09 OVMax= 1.71D-03

 Cycle  51  Pass 1  IDiag  3:
 E= -1.63644646361598     Delta-E=        0.000000021389 Rises=F Damp=F
 DIIS: error= 2.30D-06 at cycle  51 NSaved=  20.
 NSaved=20 IEnMin=10 EnMin= -1.63645060950728     IErMin=19 ErrMin= 1.93D-06
 ErrMax= 2.30D-06  0.00D+00 EMaxC= 1.00D+00 BMatC= 3.74D-10 BMatP= 2.19D-10
 IDIUse=1 WtCom= 1.00D+00 WtEn= 0.00D+00
 Coeff-Com: -0.146D-01 0.491D-01-0.686D-01 0.113D-01 0.249D-01 0.936D-01
 Coeff-Com: -0.120D+00-0.139D+00 0.171D+00-0.639D+00 0.791D+00-0.738D-01
 Coeff-Com: -0.988D-01 0.290D-01 0.272D+00-0.297D-01-0.322D+00-0.177D-01
 Coeff-Com:  0.994D+00 0.876D-01
 Coeff:     -0.146D-01 0.491D-01-0.686D-01 0.113D-01 0.249D-01 0.936D-01
 Coeff:     -0.120D+00-0.139D+00 0.171D+00-0.639D+00 0.791D+00-0.738D-01
 Coeff:     -0.988D-01 0.290D-01 0.272D+00-0.297D-01-0.322D+00-0.177D-01
 Coeff:      0.994D+00 0.876D-01
 Gap=     0.098 Goal=   None    Shift=    0.000
 RMSDP=3.98D-06 MaxDP=3.23D-05 DE= 2.14D-08 OVMax= 1.44D-04

 Cycle  52  Pass 1  IDiag  3:
 E= -1.63644646620310     Delta-E=       -0.000000002587 Rises=F Damp=F
 DIIS: error= 1.75D-06 at cycle  52 NSaved=  20.
 NSaved=20 IEnMin=10 EnMin= -1.63645060950728     IErMin=20 ErrMin= 1.75D-06
 ErrMax= 1.75D-06  0.00D+00 EMaxC= 1.00D+00 BMatC= 1.36D-10 BMatP= 3.74D-10
 IDIUse=1 WtCom= 1.00D+00 WtEn= 0.00D+00
 Coeff-Com:  0.582D-04 0.213D-01-0.419D-01 0.677D-01-0.114D-01-0.222D-01
 Coeff-Com: -0.977D-01-0.714D-01 0.310D+00-0.577D+00 0.615D+00-0.188D+00
 Coeff-Com:  0.189D+00-0.705D-01 0.204D-01 0.424D-01-0.223D+00-0.798D-02
 Coeff-Com: -0.903D-01 0.114D+01
 Coeff:      0.582D-04 0.213D-01-0.419D-01 0.677D-01-0.114D-01-0.222D-01
 Coeff:     -0.977D-01-0.714D-01 0.310D+00-0.577D+00 0.615D+00-0.188D+00
 Coeff:      0.189D+00-0.705D-01 0.204D-01 0.424D-01-0.223D+00-0.798D-02
 Coeff:     -0.903D-01 0.114D+01
 Gap=     0.098 Goal=   None    Shift=    0.000
 RMSDP=1.70D-05 MaxDP=1.45D-04 DE=-2.59D-09 OVMax= 6.21D-04

 Cycle  53  Pass 1  IDiag  3:
 E= -1.63644646431345     Delta-E=        0.000000001890 Rises=F Damp=F
 DIIS: error= 1.95D-06 at cycle  53 NSaved=  20.
 NSaved=20 IEnMin=10 EnMin= -1.63645060950728     IErMin=19 ErrMin= 1.75D-06
 ErrMax= 1.95D-06  0.00D+00 EMaxC= 1.00D+00 BMatC= 2.16D-10 BMatP= 1.36D-10
 IDIUse=1 WtCom= 1.00D+00 WtEn= 0.00D+00
 Coeff-Com:  0.178D-02 0.390D-01-0.993D-01 0.134D+00-0.113D-01-0.555D-01
 Coeff-Com: -0.161D+00 0.134D-01 0.502D+00-0.112D+01 0.123D+01-0.408D+00
 Coeff-Com:  0.259D+00-0.102D+00-0.103D+00 0.692D-01-0.234D+00 0.160D-02
 Coeff-Com:  0.743D+00 0.298D+00
 Coeff:      0.178D-02 0.390D-01-0.993D-01 0.134D+00-0.113D-01-0.555D-01
 Coeff:     -0.161D+00 0.134D-01 0.502D+00-0.112D+01 0.123D+01-0.408D+00
 Coeff:      0.259D+00-0.102D+00-0.103D+00 0.692D-01-0.234D+00 0.160D-02
 Coeff:      0.743D+00 0.298D+00
 Gap=     0.098 Goal=   None    Shift=    0.000
 RMSDP=2.88D-06 MaxDP=2.32D-05 DE= 1.89D-09 OVMax= 1.06D-04

 Cycle  54  Pass 1  IDiag  3:
 E= -1.63644646549290     Delta-E=       -0.000000001179 Rises=F Damp=F
 DIIS: error= 1.73D-06 at cycle  54 NSaved=  20.
 NSaved=20 IEnMin=10 EnMin= -1.63645060950728     IErMin=20 ErrMin= 1.73D-06
 ErrMax= 1.73D-06  0.00D+00 EMaxC= 1.00D+00 BMatC= 1.78D-10 BMatP= 2.16D-10
 IDIUse=1 WtCom= 1.00D+00 WtEn= 0.00D+00
 Coeff-Com:  0.537D-02 0.548D-01-0.161D+00 0.248D+00-0.460D-01-0.148D+00
 Coeff-Com: -0.276D+00 0.224D+00 0.829D+00-0.114D+01 0.902D+00-0.582D+00
 Coeff-Com:  0.777D+00-0.189D+00-0.560D+00 0.181D+00-0.165D+00 0.233D-01
 Coeff-Com: -0.959D-01 0.112D+01
 Coeff:      0.537D-02 0.548D-01-0.161D+00 0.248D+00-0.460D-01-0.148D+00
 Coeff:     -0.276D+00 0.224D+00 0.829D+00-0.114D+01 0.902D+00-0.582D+00
 Coeff:      0.777D+00-0.189D+00-0.560D+00 0.181D+00-0.165D+00 0.233D-01
 Coeff:     -0.959D-01 0.112D+01
 Gap=     0.098 Goal=   None    Shift=    0.000
 RMSDP=4.51D-06 MaxDP=3.72D-05 DE=-1.18D-09 OVMax= 1.57D-04

 Cycle  55  Pass 1  IDiag  3:
 E= -1.63644646761190     Delta-E=       -0.000000002119 Rises=F Damp=F
 DIIS: error= 1.39D-06 at cycle  55 NSaved=  20.
 NSaved=20 IEnMin=10 EnMin= -1.63645060950728     IErMin=20 ErrMin= 1.39D-06
 ErrMax= 1.39D-06  0.00D+00 EMaxC= 1.00D+00 BMatC= 1.35D-10 BMatP= 1.78D-10
 IDIUse=1 WtCom= 1.00D+00 WtEn= 0.00D+00
 Coeff-Com: -0.137D-01 0.841D-01-0.199D+00 0.206D+00-0.197D-01-0.557D-01
 Coeff-Com: -0.218D+00 0.253D+00 0.689D+00-0.122D+01 0.109D+01-0.819D+00
 Coeff-Com:  0.727D+00-0.967D-01-0.472D+00 0.150D+00-0.117D+00 0.162D-01
 Coeff-Com: -0.512D+00 0.153D+01
 Coeff:     -0.137D-01 0.841D-01-0.199D+00 0.206D+00-0.197D-01-0.557D-01
 Coeff:     -0.218D+00 0.253D+00 0.689D+00-0.122D+01 0.109D+01-0.819D+00
 Coeff:      0.727D+00-0.967D-01-0.472D+00 0.150D+00-0.117D+00 0.162D-01
 Coeff:     -0.512D+00 0.153D+01
 Gap=     0.098 Goal=   None    Shift=    0.000
 RMSDP=2.34D-06 MaxDP=1.75D-05 DE=-2.12D-09 OVMax= 4.88D-05

 Cycle  56  Pass 1  IDiag  3:
 E= -1.63644646879470     Delta-E=       -0.000000001183 Rises=F Damp=F
 DIIS: error= 4.76D-07 at cycle  56 NSaved=  20.
 NSaved=20 IEnMin=10 EnMin= -1.63645060950728     IErMin=20 ErrMin= 4.76D-07
 ErrMax= 4.76D-07  0.00D+00 EMaxC= 1.00D+00 BMatC= 2.56D-11 BMatP= 1.35D-10
 IDIUse=1 WtCom= 1.00D+00 WtEn= 0.00D+00
 Coeff-Com: -0.181D-01 0.187D-01 0.254D-02-0.949D-01 0.137D-01 0.123D+00
 Coeff-Com:  0.577D-01-0.199D-01-0.184D+00-0.897D-01 0.165D+00-0.610D-01
 Coeff-Com: -0.130D+00 0.739D-01 0.258D+00-0.673D-01-0.597D-01-0.124D-01
 Coeff-Com: -0.349D+00 0.137D+01
 Coeff:     -0.181D-01 0.187D-01 0.254D-02-0.949D-01 0.137D-01 0.123D+00
 Coeff:      0.577D-01-0.199D-01-0.184D+00-0.897D-01 0.165D+00-0.610D-01
 Coeff:     -0.130D+00 0.739D-01 0.258D+00-0.673D-01-0.597D-01-0.124D-01
 Coeff:     -0.349D+00 0.137D+01
 Gap=     0.098 Goal=   None    Shift=    0.000
 RMSDP=2.04D-05 MaxDP=1.76D-04 DE=-1.18D-09 OVMax= 7.62D-04

 Cycle  57  Pass 1  IDiag  3:
 E= -1.63644646698270     Delta-E=        0.000000001812 Rises=F Damp=F
 DIIS: error= 8.57D-07 at cycle  57 NSaved=  20.
 NSaved=20 IEnMin=10 EnMin= -1.63645060950728     IErMin=19 ErrMin= 4.76D-07
 ErrMax= 8.57D-07  0.00D+00 EMaxC= 1.00D+00 BMatC= 8.59D-11 BMatP= 2.56D-11
 IDIUse=1 WtCom= 1.00D+00 WtEn= 0.00D+00
 Coeff-Com: -0.146D-01 0.302D-01-0.356D-01-0.387D-01 0.111D-01 0.908D-01
 Coeff-Com: -0.521D-02 0.148D-01-0.114D-01-0.455D+00 0.549D+00-0.153D+00
 Coeff-Com: -0.796D-01 0.479D-01 0.163D+00-0.384D-01-0.957D-01-0.640D-02
 Coeff-Com:  0.829D+00 0.196D+00
 Coeff:     -0.146D-01 0.302D-01-0.356D-01-0.387D-01 0.111D-01 0.908D-01
 Coeff:     -0.521D-02 0.148D-01-0.114D-01-0.455D+00 0.549D+00-0.153D+00
 Coeff:     -0.796D-01 0.479D-01 0.163D+00-0.384D-01-0.957D-01-0.640D-02
 Coeff:      0.829D+00 0.196D+00
 Gap=     0.098 Goal=   None    Shift=    0.000
 RMSDP=1.26D-06 MaxDP=1.05D-05 DE= 1.81D-09 OVMax= 4.43D-05

 Cycle  58  Pass 1  IDiag  3:
 E= -1.63644646718586     Delta-E=       -0.000000000203 Rises=F Damp=F
 DIIS: error= 5.83D-07 at cycle  58 NSaved=  20.
 NSaved=20 IEnMin=10 EnMin= -1.63645060950728     IErMin=20 ErrMin= 5.83D-07
 ErrMax= 5.83D-07  0.00D+00 EMaxC= 1.00D+00 BMatC= 2.78D-11 BMatP= 8.59D-11
 IDIUse=1 WtCom= 1.00D+00 WtEn= 0.00D+00
 Coeff-Com: -0.701D-02-0.104D-01 0.518D-01-0.979D-01 0.991D-02 0.909D-01
 Coeff-Com:  0.868D-01-0.136D+00-0.253D+00 0.352D+00-0.270D+00 0.177D+00
 Coeff-Com: -0.228D+00 0.548D-01 0.275D+00-0.654D-01-0.166D-01-0.162D-01
 Coeff-Com: -0.164D+00 0.117D+01
 Coeff:     -0.701D-02-0.104D-01 0.518D-01-0.979D-01 0.991D-02 0.909D-01
 Coeff:      0.868D-01-0.136D+00-0.253D+00 0.352D+00-0.270D+00 0.177D+00
 Coeff:     -0.228D+00 0.548D-01 0.275D+00-0.654D-01-0.166D-01-0.162D-01
 Coeff:     -0.164D+00 0.117D+01
 Gap=     0.098 Goal=   None    Shift=    0.000
 RMSDP=3.36D-06 MaxDP=3.07D-05 DE=-2.03D-10 OVMax= 1.24D-04

 Cycle  59  Pass 1  IDiag  3:
 E= -1.63644646740227     Delta-E=       -0.000000000216 Rises=F Damp=F
 DIIS: error= 3.76D-07 at cycle  59 NSaved=  20.
 NSaved=20 IEnMin=10 EnMin= -1.63645060950728     IErMin=20 ErrMin= 3.76D-07
 ErrMax= 3.76D-07  0.00D+00 EMaxC= 1.00D+00 BMatC= 7.38D-12 BMatP= 2.78D-11
 IDIUse=1 WtCom= 1.00D+00 WtEn= 0.00D+00
 Coeff-Com:  0.274D-02 0.821D-03-0.163D-02 0.107D-01-0.556D-02 0.979D-02
 Coeff-Com: -0.437D-01-0.667D-01 0.626D-01-0.612D-01 0.508D-01 0.177D+00
 Coeff-Com: -0.797D-01-0.287D-01-0.276D-02 0.157D-01-0.461D-01-0.717D-03
 Coeff-Com: -0.177D-01 0.102D+01
 Coeff:      0.274D-02 0.821D-03-0.163D-02 0.107D-01-0.556D-02 0.979D-02
 Coeff:     -0.437D-01-0.667D-01 0.626D-01-0.612D-01 0.508D-01 0.177D+00
 Coeff:     -0.797D-01-0.287D-01-0.276D-02 0.157D-01-0.461D-01-0.717D-03
 Coeff:     -0.177D-01 0.102D+01
 Gap=     0.098 Goal=   None    Shift=    0.000
 RMSDP=8.24D-07 MaxDP=6.70D-06 DE=-2.16D-10 OVMax= 1.99D-05

 Cycle  60  Pass 1  IDiag  3:
 E= -1.63644646747656     Delta-E=       -0.000000000074 Rises=F Damp=F
 DIIS: error= 3.91D-07 at cycle  60 NSaved=  20.
 NSaved=20 IEnMin=10 EnMin= -1.63645060950728     IErMin=19 ErrMin= 3.76D-07
 ErrMax= 3.91D-07  0.00D+00 EMaxC= 1.00D+00 BMatC= 1.64D-11 BMatP= 7.38D-12
 IDIUse=1 WtCom= 1.00D+00 WtEn= 0.00D+00
 Coeff-Com:  0.304D-02 0.649D-02-0.205D-01 0.362D-01-0.810D-02-0.124D-01
 Coeff-Com: -0.606D-01-0.157D-01 0.139D+00-0.189D+00 0.167D+00 0.329D-01
 Coeff-Com:  0.421D-01-0.415D-01-0.715D-01 0.321D-01-0.499D-01 0.266D-02
 Coeff-Com:  0.638D+00 0.369D+00
 Coeff:      0.304D-02 0.649D-02-0.205D-01 0.362D-01-0.810D-02-0.124D-01
 Coeff:     -0.606D-01-0.157D-01 0.139D+00-0.189D+00 0.167D+00 0.329D-01
 Coeff:      0.421D-01-0.415D-01-0.715D-01 0.321D-01-0.499D-01 0.266D-02
 Coeff:      0.638D+00 0.369D+00
 Gap=     0.098 Goal=   None    Shift=    0.000
 RMSDP=5.09D-07 MaxDP=4.19D-06 DE=-7.43D-11 OVMax= 1.79D-05

 Cycle  61  Pass 1  IDiag  3:
 E= -1.63644646750652     Delta-E=       -0.000000000030 Rises=F Damp=F
 DIIS: error= 3.41D-07 at cycle  61 NSaved=  20.
 NSaved=20 IEnMin=10 EnMin= -1.63645060950728     IErMin=20 ErrMin= 3.41D-07
 ErrMax= 3.41D-07  0.00D+00 EMaxC= 1.00D+00 BMatC= 1.36D-11 BMatP= 1.64D-11
 IDIUse=1 WtCom= 1.00D+00 WtEn= 0.00D+00
 Coeff-Com: -0.591D-02 0.276D-01-0.570D-01 0.508D-01-0.692D-02-0.142D-01
 Coeff-Com: -0.586D-01 0.954D-01 0.167D+00-0.324D+00 0.288D+00-0.234D+00
 Coeff-Com:  0.202D+00-0.192D-01-0.122D+00 0.368D-01-0.327D-01 0.480D-02
 Coeff-Com: -0.266D+01 0.366D+01
 Coeff:     -0.591D-02 0.276D-01-0.570D-01 0.508D-01-0.692D-02-0.142D-01
 Coeff:     -0.586D-01 0.954D-01 0.167D+00-0.324D+00 0.288D+00-0.234D+00
 Coeff:      0.202D+00-0.192D-01-0.122D+00 0.368D-01-0.327D-01 0.480D-02
 Coeff:     -0.266D+01 0.366D+01
 Gap=     0.098 Goal=   None    Shift=    0.000
 RMSDP=2.73D-06 MaxDP=2.19D-05 DE=-3.00D-11 OVMax= 9.91D-05

 Cycle  62  Pass 1  IDiag  3:
 E= -1.63644646764482     Delta-E=       -0.000000000138 Rises=F Damp=F
 DIIS: error= 9.98D-08 at cycle  62 NSaved=  20.
 NSaved=20 IEnMin=10 EnMin= -1.63645060950728     IErMin=20 ErrMin= 9.98D-08
 ErrMax= 9.98D-08  0.00D+00 EMaxC= 1.00D+00 BMatC= 2.88D-12 BMatP= 1.36D-11
 IDIUse=1 WtCom= 1.00D+00 WtEn= 0.00D+00
 Coeff-Com: -0.550D-02 0.154D-01-0.262D-01 0.604D-02 0.280D-02 0.202D-01
 Coeff-Com: -0.521D-02 0.309D-01 0.216D-01-0.162D+00 0.196D+00-0.129D+00
 Coeff-Com:  0.286D-01 0.146D-01 0.135D-01-0.272D-02-0.221D-01 0.943D-03
 Coeff-Com: -0.581D-01 0.106D+01
 Coeff:     -0.550D-02 0.154D-01-0.262D-01 0.604D-02 0.280D-02 0.202D-01
 Coeff:     -0.521D-02 0.309D-01 0.216D-01-0.162D+00 0.196D+00-0.129D+00
 Coeff:      0.286D-01 0.146D-01 0.135D-01-0.272D-02-0.221D-01 0.943D-03
 Coeff:     -0.581D-01 0.106D+01
 Gap=     0.098 Goal=   None    Shift=    0.000
 RMSDP=1.74D-06 MaxDP=1.54D-05 DE=-1.38D-10 OVMax= 6.49D-05

 Cycle  63  Pass 1  IDiag  3:
 E= -1.63644646766807     Delta-E=       -0.000000000023 Rises=F Damp=F
 DIIS: error= 1.46D-07 at cycle  63 NSaved=  20.
 NSaved=20 IEnMin=10 EnMin= -1.63645060950728     IErMin=19 ErrMin= 9.98D-08
 ErrMax= 1.46D-07  0.00D+00 EMaxC= 1.00D+00 BMatC= 2.15D-12 BMatP= 2.88D-12
 IDIUse=1 WtCom= 1.00D+00 WtEn= 0.00D+00
 Coeff-Com: -0.302D-02 0.637D-02-0.676D-02-0.162D-01 0.824D-02 0.265D-01
 Coeff-Com:  0.911D-02-0.902D-02-0.369D-01-0.308D-01 0.610D-01 0.354D-02
 Coeff-Com: -0.610D-01 0.224D-01 0.546D-01-0.157D-01-0.126D-01-0.124D-02
 Coeff-Com:  0.188D+00 0.813D+00
 Coeff:     -0.302D-02 0.637D-02-0.676D-02-0.162D-01 0.824D-02 0.265D-01
 Coeff:      0.911D-02-0.902D-02-0.369D-01-0.308D-01 0.610D-01 0.354D-02
 Coeff:     -0.610D-01 0.224D-01 0.546D-01-0.157D-01-0.126D-01-0.124D-02
 Coeff:      0.188D+00 0.813D+00
 Gap=     0.098 Goal=   None    Shift=    0.000
 RMSDP=5.24D-07 MaxDP=4.78D-06 DE=-2.32D-11 OVMax= 1.87D-05

 Cycle  64  Pass 1  IDiag  3:
 E= -1.63644646768489     Delta-E=       -0.000000000017 Rises=F Damp=F
 DIIS: error= 5.38D-08 at cycle  64 NSaved=  20.
 NSaved=20 IEnMin=10 EnMin= -1.63645060950728     IErMin=20 ErrMin= 5.38D-08
 ErrMax= 5.38D-08  0.00D+00 EMaxC= 1.00D+00 BMatC= 4.53D-13 BMatP= 2.15D-12
 IDIUse=1 WtCom= 1.00D+00 WtEn= 0.00D+00
 Coeff-Com:  0.105D-02-0.195D-02 0.326D-02 0.257D-02-0.474D-02-0.450D-02
 Coeff-Com: -0.117D-02-0.700D-02 0.112D-01-0.970D-02 0.164D-01-0.249D-02
 Coeff-Com:  0.117D-01-0.101D-01 0.106D-02 0.107D-02-0.770D-02-0.145D-04
 Coeff-Com: -0.415D+00 0.142D+01
 Coeff:      0.105D-02-0.195D-02 0.326D-02 0.257D-02-0.474D-02-0.450D-02
 Coeff:     -0.117D-02-0.700D-02 0.112D-01-0.970D-02 0.164D-01-0.249D-02
 Coeff:      0.117D-01-0.101D-01 0.106D-02 0.107D-02-0.770D-02-0.145D-04
 Coeff:     -0.415D+00 0.142D+01
 Gap=     0.098 Goal=   None    Shift=    0.000
 RMSDP=2.67D-07 MaxDP=2.25D-06 DE=-1.68D-11 OVMax= 8.40D-06

 Cycle  65  Pass 1  IDiag  3:
 E= -1.63644646769228     Delta-E=       -0.000000000007 Rises=F Damp=F
 DIIS: error= 4.56D-08 at cycle  65 NSaved=  20.
 NSaved=20 IEnMin=10 EnMin= -1.63645060950728     IErMin=20 ErrMin= 4.56D-08
 ErrMax= 4.56D-08  0.00D+00 EMaxC= 1.00D+00 BMatC= 3.26D-13 BMatP= 4.53D-13
 IDIUse=1 WtCom= 1.00D+00 WtEn= 0.00D+00
 Coeff-Com: -0.532D-04 0.317D-02-0.787D-02 0.721D-02 0.234D-03-0.620D-03
 Coeff-Com: -0.112D-01-0.701D-04 0.270D-01-0.315D-01 0.294D-01-0.114D-01
 Coeff-Com:  0.153D-01-0.292D-02-0.131D-01 0.540D-02-0.107D-01 0.468D-03
 Coeff-Com:  0.124D+00 0.877D+00
 Coeff:     -0.532D-04 0.317D-02-0.787D-02 0.721D-02 0.234D-03-0.620D-03
 Coeff:     -0.112D-01-0.701D-04 0.270D-01-0.315D-01 0.294D-01-0.114D-01
 Coeff:      0.153D-01-0.292D-02-0.131D-01 0.540D-02-0.107D-01 0.468D-03
 Coeff:      0.124D+00 0.877D+00
 Gap=     0.098 Goal=   None    Shift=    0.000
 RMSDP=2.57D-07 MaxDP=1.98D-06 DE=-7.39D-12 OVMax= 9.26D-06

 Cycle  66  Pass 1  IDiag  3:
 E= -1.63644646769364     Delta-E=       -0.000000000001 Rises=F Damp=F
 DIIS: error= 4.09D-08 at cycle  66 NSaved=  20.
 NSaved=20 IEnMin=10 EnMin= -1.63645060950728     IErMin=20 ErrMin= 4.09D-08
 ErrMax= 4.09D-08  0.00D+00 EMaxC= 1.00D+00 BMatC= 2.76D-13 BMatP= 3.26D-13
 IDIUse=1 WtCom= 1.00D+00 WtEn= 0.00D+00
 Coeff-Com: -0.267D-03 0.336D-02-0.808D-02 0.678D-02 0.317D-03-0.137D-02
 Coeff-Com: -0.108D-01 0.107D-01 0.275D-01-0.610D-01 0.668D-01-0.393D-01
 Coeff-Com:  0.283D-01-0.636D-02-0.164D-01 0.547D-02-0.749D-02 0.985D-03
 Coeff-Com: -0.187D+00 0.119D+01
 Coeff:     -0.267D-03 0.336D-02-0.808D-02 0.678D-02 0.317D-03-0.137D-02
 Coeff:     -0.108D-01 0.107D-01 0.275D-01-0.610D-01 0.668D-01-0.393D-01
 Coeff:      0.283D-01-0.636D-02-0.164D-01 0.547D-02-0.749D-02 0.985D-03
 Coeff:     -0.187D+00 0.119D+01
 Gap=     0.098 Goal=   None    Shift=    0.000
 RMSDP=1.47D-07 MaxDP=1.08D-06 DE=-1.36D-12 OVMax= 4.60D-06

 Cycle  67  Pass 1  IDiag  1:
 E= -1.63644646769734     Delta-E=       -0.000000000004 Rises=F Damp=F
 DIIS: error= 2.26D-08 at cycle  67 NSaved=  20.
 NSaved=20 IEnMin=10 EnMin= -1.63645060950728     IErMin=20 ErrMin= 2.26D-08
 ErrMax= 2.26D-08  0.00D+00 EMaxC= 1.00D+00 BMatC= 1.10D-13 BMatP= 2.76D-13
 IDIUse=1 WtCom= 1.00D+00 WtEn= 0.00D+00
 Coeff-Com: -0.113D-02 0.177D-02-0.121D-02-0.376D-02 0.717D-03 0.716D-02
 Coeff-Com:  0.124D-02-0.593D-02-0.915D-02 0.246D-01-0.276D-01 0.119D-01
 Coeff-Com: -0.128D-01 0.886D-02 0.112D-01-0.284D-02-0.227D-02-0.902D-03
 Coeff-Com: -0.778D+00 0.178D+01
 Coeff:     -0.113D-02 0.177D-02-0.121D-02-0.376D-02 0.717D-03 0.716D-02
 Coeff:      0.124D-02-0.593D-02-0.915D-02 0.246D-01-0.276D-01 0.119D-01
 Coeff:     -0.128D-01 0.886D-02 0.112D-01-0.284D-02-0.227D-02-0.902D-03
 Coeff:     -0.778D+00 0.178D+01
 RMSDP=1.40D-07 MaxDP=9.42D-07 DE=-3.69D-12 OVMax= 4.60D-06

 Cycle  68  Pass 1  IDiag  3:
 E= -1.63644646770064     Delta-E=       -0.000000000003 Rises=F Damp=F
 DIIS: error= 2.79D-08 at cycle  68 NSaved=  20.
 NSaved=20 IEnMin=10 EnMin= -1.63645060950728     IErMin=19 ErrMin= 2.26D-08
 ErrMax= 2.79D-08  0.00D+00 EMaxC= 1.00D+00 BMatC= 7.77D-14 BMatP= 1.10D-13
 IDIUse=1 WtCom= 1.00D+00 WtEn= 0.00D+00
 Coeff-Com: -0.380D-03 0.305D-03 0.820D-03-0.409D-02 0.687D-03 0.512D-02
 Coeff-Com:  0.219D-02-0.428D-02-0.960D-02 0.503D-02 0.507D-02-0.448D-03
 Coeff-Com: -0.992D-02 0.290D-02 0.119D-01-0.299D-02-0.193D-02-0.484D-03
 Coeff-Com:  0.166D+00 0.834D+00
 Coeff:     -0.380D-03 0.305D-03 0.820D-03-0.409D-02 0.687D-03 0.512D-02
 Coeff:      0.219D-02-0.428D-02-0.960D-02 0.503D-02 0.507D-02-0.448D-03
 Coeff:     -0.992D-02 0.290D-02 0.119D-01-0.299D-02-0.193D-02-0.484D-03
 Coeff:      0.166D+00 0.834D+00
 Gap=     0.098 Goal=   None    Shift=    0.000
 RMSDP=9.36D-08 MaxDP=8.38D-07 DE=-3.30D-12 OVMax= 3.45D-06

 Cycle  69  Pass 1  IDiag  3:
 E= -1.63644646770081     Delta-E=       -0.000000000000 Rises=F Damp=F
 DIIS: error= 1.44D-08 at cycle  69 NSaved=  20.
 NSaved=20 IEnMin=10 EnMin= -1.63645060950728     IErMin=20 ErrMin= 1.44D-08
 ErrMax= 1.44D-08  0.00D+00 EMaxC= 1.00D+00 BMatC= 3.10D-14 BMatP= 7.77D-14
 IDIUse=1 WtCom= 1.00D+00 WtEn= 0.00D+00
 Large coefficients: NSaved= 20 BigCof=    0.00 CofMax=   10.00 Det=-8.46D-15
 Inversion failed.  Reducing to 19 matrices.
 Large coefficients: NSaved= 19 BigCof=    0.00 CofMax=   10.00 Det=-8.53D-15
 Inversion failed.  Reducing to 18 matrices.
 Large coefficients: NSaved= 18 BigCof=    0.00 CofMax=   10.00 Det=-8.65D-15
 Inversion failed.  Reducing to 17 matrices.
 Large coefficients: NSaved= 17 BigCof=    0.00 CofMax=   10.00 Det=-9.16D-15
 Inversion failed.  Reducing to 16 matrices.
 Large coefficients: NSaved= 16 BigCof=    0.00 CofMax=   10.00 Det=-9.16D-15
 Inversion failed.  Reducing to 15 matrices.
 Coeff-Com: -0.247D-03 0.115D-02 0.412D-03-0.349D-03-0.348D-02-0.503D-02
 Coeff-Com:  0.498D-02 0.101D-01-0.128D-01 0.963D-02-0.249D-02-0.394D-03
 Coeff-Com: -0.157D-02-0.791D+00 0.179D+01
 Coeff:     -0.247D-03 0.115D-02 0.412D-03-0.349D-03-0.348D-02-0.503D-02
 Coeff:      0.498D-02 0.101D-01-0.128D-01 0.963D-02-0.249D-02-0.394D-03
 Coeff:     -0.157D-02-0.791D+00 0.179D+01
 Gap=     0.098 Goal=   None    Shift=    0.000
 RMSDP=3.56D-08 MaxDP=2.66D-07 DE=-1.71D-13 OVMax= 8.51D-07

 Cycle  70  Pass 1  IDiag  3:
 E= -1.63644646770155     Delta-E=       -0.000000000001 Rises=F Damp=F
 DIIS: error= 9.82D-09 at cycle  70 NSaved=  16.
 NSaved=16 IEnMin= 8 EnMin= -1.63645060950728     IErMin=16 ErrMin= 9.82D-09
 ErrMax= 9.82D-09  0.00D+00 EMaxC= 1.00D+00 BMatC= 1.62D-14 BMatP= 3.10D-14
 IDIUse=1 WtCom= 1.00D+00 WtEn= 0.00D+00
 Large coefficients: NSaved= 16 BigCof=    0.00 CofMax=   10.00 Det=-1.53D-15
 Inversion failed.  Reducing to 15 matrices.
 Coeff-Com: -0.125D-03 0.571D-03-0.316D-04-0.409D-03-0.271D-02 0.486D-03
 Coeff-Com:  0.432D-02-0.530D-02 0.928D-02-0.919D-02 0.701D-02-0.144D-02
 Coeff-Com: -0.260D-02 0.251D-01 0.975D+00
 Coeff:     -0.125D-03 0.571D-03-0.316D-04-0.409D-03-0.271D-02 0.486D-03
 Coeff:      0.432D-02-0.530D-02 0.928D-02-0.919D-02 0.701D-02-0.144D-02
 Coeff:     -0.260D-02 0.251D-01 0.975D+00
 Gap=     0.098 Goal=   None    Shift=    0.000
 RMSDP=2.55D-08 MaxDP=1.75D-07 DE=-7.39D-13 OVMax= 6.99D-07

 Cycle  71  Pass 1  IDiag  3:
 E= -1.63644646770166     Delta-E=       -0.000000000000 Rises=F Damp=F
 DIIS: error= 1.07D-08 at cycle  71 NSaved=  16.
 NSaved=16 IEnMin= 8 EnMin= -1.63645060950728     IErMin=15 ErrMin= 9.82D-09
 ErrMax= 1.07D-08  0.00D+00 EMaxC= 1.00D+00 BMatC= 1.00D-14 BMatP= 1.62D-14
 IDIUse=1 WtCom= 1.00D+00 WtEn= 0.00D+00
 Large coefficients: NSaved= 16 BigCof=    0.00 CofMax=   10.00 Det=-2.95D-15
 Inversion failed.  Reducing to 15 matrices.
 Coeff-Com: -0.110D-03-0.130D-02 0.872D-03 0.196D-02-0.482D-03-0.114D-02
 Coeff-Com: -0.205D-02 0.335D-02-0.512D-03 0.114D-02-0.435D-02 0.194D-02
 Coeff-Com:  0.701D-03-0.242D+00 0.124D+01
 Coeff:     -0.110D-03-0.130D-02 0.872D-03 0.196D-02-0.482D-03-0.114D-02
 Coeff:     -0.205D-02 0.335D-02-0.512D-03 0.114D-02-0.435D-02 0.194D-02
 Coeff:      0.701D-03-0.242D+00 0.124D+01
 Gap=     0.098 Goal=   None    Shift=    0.000
 RMSDP=1.94D-08 MaxDP=1.43D-07 DE=-1.14D-13 OVMax= 5.33D-07

 Cycle  72  Pass 1  IDiag  3:
 E= -1.63644646770194     Delta-E=       -0.000000000000 Rises=F Damp=F
 DIIS: error= 9.18D-09 at cycle  72 NSaved=  16.
 NSaved=16 IEnMin= 8 EnMin= -1.63645060950728     IErMin=16 ErrMin= 9.18D-09
 ErrMax= 9.18D-09  0.00D+00 EMaxC= 1.00D+00 BMatC= 7.69D-15 BMatP= 1.00D-14
 IDIUse=1 WtCom= 1.00D+00 WtEn= 0.00D+00
 Large coefficients: NSaved= 16 BigCof=    0.00 CofMax=   10.00 Det=-4.50D-16
 Inversion failed.  Reducing to 15 matrices.
 Coeff-Com:  0.272D-03-0.130D-02 0.397D-03 0.148D-02 0.466D-03-0.612D-03
 Coeff-Com: -0.370D-02 0.120D-02 0.369D-02-0.490D-03-0.356D-02 0.831D-03
 Coeff-Com:  0.136D-02-0.245D+00 0.124D+01
 Coeff:      0.272D-03-0.130D-02 0.397D-03 0.148D-02 0.466D-03-0.612D-03
 Coeff:     -0.370D-02 0.120D-02 0.369D-02-0.490D-03-0.356D-02 0.831D-03
 Coeff:      0.136D-02-0.245D+00 0.124D+01
 Gap=     0.098 Goal=   None    Shift=    0.000
 RMSDP=2.39D-08 MaxDP=1.94D-07 DE=-2.84D-13 OVMax= 7.95D-07

 Cycle  73  Pass 1  IDiag  3:
 E= -1.63644646770194     Delta-E=        0.000000000000 Rises=F Damp=F
 DIIS: error= 6.07D-09 at cycle  73 NSaved=  16.
 NSaved=16 IEnMin= 8 EnMin= -1.63645060950728     IErMin=16 ErrMin= 6.07D-09
 ErrMax= 6.07D-09  0.00D+00 EMaxC= 1.00D+00 BMatC= 4.16D-15 BMatP= 7.69D-15
 IDIUse=1 WtCom= 1.00D+00 WtEn= 0.00D+00
 Large coefficients: NSaved= 16 BigCof=    0.00 CofMax=   10.00 Det=-5.00D-16
 Inversion failed.  Reducing to 15 matrices.
 Coeff-Com: -0.250D-03 0.851D-03 0.606D-03-0.751D-03-0.188D-02-0.219D-02
 Coeff-Com:  0.302D-02 0.349D-02-0.698D-02 0.673D-02-0.152D-02 0.561D-03
 Coeff-Com: -0.174D-02-0.148D+01 0.248D+01
 Coeff:     -0.250D-03 0.851D-03 0.606D-03-0.751D-03-0.188D-02-0.219D-02
 Coeff:      0.302D-02 0.349D-02-0.698D-02 0.673D-02-0.152D-02 0.561D-03
 Coeff:     -0.174D-02-0.148D+01 0.248D+01
 Gap=     0.098 Goal=   None    Shift=    0.000
 RMSDP=3.14D-08 MaxDP=2.18D-07 DE= 0.00D+00 OVMax= 8.68D-07

 Cycle  74  Pass 1  IDiag  3:
 E= -1.63644646770234     Delta-E=       -0.000000000000 Rises=F Damp=F
 DIIS: error= 6.80D-09 at cycle  74 NSaved=  16.
 NSaved=16 IEnMin= 8 EnMin= -1.63645060950728     IErMin=15 ErrMin= 6.07D-09
 ErrMax= 6.80D-09  0.00D+00 EMaxC= 1.00D+00 BMatC= 5.45D-15 BMatP= 4.16D-15
 IDIUse=1 WtCom= 1.00D+00 WtEn= 0.00D+00
 Large coefficients: NSaved= 16 BigCof=    0.00 CofMax=   10.00 Det=-2.36D-16
 Inversion failed.  Reducing to 15 matrices.
 Coeff-Com: -0.995D-04 0.522D-03 0.110D-03-0.555D-03-0.151D-02 0.218D-04
 Coeff-Com:  0.250D-02-0.259D-02 0.318D-02-0.241D-02 0.284D-02-0.438D-03
 Coeff-Com: -0.164D-02 0.426D+00 0.574D+00
 Coeff:     -0.995D-04 0.522D-03 0.110D-03-0.555D-03-0.151D-02 0.218D-04
 Coeff:      0.250D-02-0.259D-02 0.318D-02-0.241D-02 0.284D-02-0.438D-03
 Coeff:     -0.164D-02 0.426D+00 0.574D+00
 Gap=     0.098 Goal=   None    Shift=    0.000
 RMSDP=1.03D-08 MaxDP=8.26D-08 DE=-3.98D-13 OVMax= 3.36D-07

 Cycle  75  Pass 1  IDiag  3:
 E= -1.63644646770246     Delta-E=       -0.000000000000 Rises=F Damp=F
 DIIS: error= 3.17D-09 at cycle  75 NSaved=  16.
 NSaved=16 IEnMin= 8 EnMin= -1.63645060950728     IErMin=16 ErrMin= 3.17D-09
 ErrMax= 3.17D-09  0.00D+00 EMaxC= 1.00D+00 BMatC= 1.84D-15 BMatP= 4.16D-15
 IDIUse=1 WtCom= 1.00D+00 WtEn= 0.00D+00
 Large coefficients: NSaved= 16 BigCof=    0.00 CofMax=   10.00 Det=-5.63D-16
 Inversion failed.  Reducing to 15 matrices.
 Coeff-Com: -0.102D-03-0.278D-04 0.302D-03 0.132D-03-0.952D-03 0.612D-04
 Coeff-Com:  0.104D-02-0.116D-02 0.182D-02-0.140D-02 0.704D-03 0.413D-03
 Coeff-Com: -0.865D-03-0.859D-01 0.109D+01
 Coeff:     -0.102D-03-0.278D-04 0.302D-03 0.132D-03-0.952D-03 0.612D-04
 Coeff:      0.104D-02-0.116D-02 0.182D-02-0.140D-02 0.704D-03 0.413D-03
 Coeff:     -0.865D-03-0.859D-01 0.109D+01
 Gap=     0.098 Goal=   None    Shift=    0.000
 RMSDP=9.24D-09 MaxDP=5.44D-08 DE=-1.14D-13 OVMax= 2.29D-07

 Cycle  76  Pass 2  IDiag  1:
 SCF Done:  E(RPM6) =  -1.63644646770     A.U. after   76 cycles
            NFock= 75  Conv=0.92D-08     -V/T= 0.9864
 KE=-1.206763575957D+02 PE=-5.185012882323D+02 EE= 2.879169462469D+02
 Leave Link  502 at Wed Jan 12 16:09:13 2022, MaxMem=   402653184 cpu:               6.0 elap:               0.2
 (Enter /work/01114/jfonner/frontera/gaussian/16rC.01/g16/l508.exe)
 QCSCF skips out because SCF is already converged.
 Leave Link  508 at Wed Jan 12 16:09:13 2022, MaxMem=   402653184 cpu:               0.3 elap:               0.0
 (Enter /work/01114/jfonner/frontera/gaussian/16rC.01/g16/l601.exe)
 Copying SCF densities to generalized density rwf, IOpCl= 0 IROHF=0.

 **********************************************************************

            Population analysis using the SCF Density.

 **********************************************************************

 Alpha  occ. eigenvalues --   -1.69260  -1.62018  -1.59624  -1.52569  -1.44946
 Alpha  occ. eigenvalues --   -1.38898  -1.33324  -1.28811  -1.22079  -1.17410
 Alpha  occ. eigenvalues --   -1.12289  -1.07830  -1.06005  -1.04039  -1.02785
 Alpha  occ. eigenvalues --   -0.99956  -0.96746  -0.94941  -0.93188  -0.90523
 Alpha  occ. eigenvalues --   -0.89335  -0.86849  -0.85829  -0.83758  -0.82173
 Alpha  occ. eigenvalues --   -0.77972  -0.77404  -0.74773  -0.71851
 Alpha virt. eigenvalues --   -0.62052  -0.50783  -0.49787  -0.46767  -0.45473
 Alpha virt. eigenvalues --   -0.44576  -0.43152  -0.41462  -0.41143  -0.39683
 Alpha virt. eigenvalues --   -0.38493  -0.35325  -0.34278  -0.33488  -0.32471
 Alpha virt. eigenvalues --   -0.31377  -0.31276  -0.29109  -0.28820  -0.26440
 Alpha virt. eigenvalues --   -0.26033  -0.25111  -0.23211  -0.21090  -0.01936
          Condensed to atoms (all electrons):
               1          2          3          4          5          6
     1  N    4.806385   0.000000   0.000000   0.000000   0.000000   0.000000
     2  C    0.000000   3.862044   0.000000   0.000000   0.000000   0.000000
     3  C    0.000000   0.000000   3.522848   0.000000   0.000000   0.000000
     4  O    0.000000   0.000000   0.000000   6.339907   0.000000   0.000000
     5  N    0.000000   0.000000   0.000000   0.000000   5.275495   0.000000
     6  C    0.000000   0.000000   0.000000   0.000000   0.000000   3.593074
     7  C    0.000000   0.000000   0.000000   0.000000   0.000000   0.000000
     8  O    0.000000   0.000000   0.000000   0.000000   0.000000   0.000000
     9  N    0.000000   0.000000   0.000000   0.000000   0.000000   0.000000
    10  C    0.000000   0.000000   0.000000   0.000000   0.000000   0.000000
    11  C    0.000000   0.000000   0.000000   0.000000   0.000000   0.000000
    12  C    0.000000   0.000000   0.000000   0.000000   0.000000   0.000000
    13  C    0.000000   0.000000   0.000000   0.000000   0.000000   0.000000
    14  H    0.000000   0.000000   0.000000   0.000000   0.000000   0.000000
    15  H    0.000000   0.000000   0.000000   0.000000   0.000000   0.000000
               7          8          9         10         11         12
     1  N    0.000000   0.000000   0.000000   0.000000   0.000000   0.000000
     2  C    0.000000   0.000000   0.000000   0.000000   0.000000   0.000000
     3  C    0.000000   0.000000   0.000000   0.000000   0.000000   0.000000
     4  O    0.000000   0.000000   0.000000   0.000000   0.000000   0.000000
     5  N    0.000000   0.000000   0.000000   0.000000   0.000000   0.000000
     6  C    0.000000   0.000000   0.000000   0.000000   0.000000   0.000000
     7  C    3.708519   0.000000   0.000000   0.000000   0.000000   0.000000
     8  O    0.000000   6.138368   0.000000   0.000000   0.000000   0.000000
     9  N    0.000000   0.000000   5.170906   0.000000   0.000000   0.000000
    10  C    0.000000   0.000000   0.000000   3.600157   0.000000   0.000000
    11  C    0.000000   0.000000   0.000000   0.000000   5.053539   0.000000
    12  C    0.000000   0.000000   0.000000   0.000000   0.000000   2.951618
    13  C    0.000000   0.000000   0.000000   0.000000   0.000000   0.000000
    14  H    0.000000   0.000000   0.000000   0.000000   0.000000   0.000000
    15  H    0.000000   0.000000   0.000000   0.000000   0.000000   0.000000
              13         14         15
     1  N    0.000000   0.000000   0.000000
     2  C    0.000000   0.000000   0.000000
     3  C    0.000000   0.000000   0.000000
     4  O    0.000000   0.000000   0.000000
     5  N    0.000000   0.000000   0.000000
     6  C    0.000000   0.000000   0.000000
     7  C    0.000000   0.000000   0.000000
     8  O    0.000000   0.000000   0.000000
     9  N    0.000000   0.000000   0.000000
    10  C    0.000000   0.000000   0.000000
    11  C    0.000000   0.000000   0.000000
    12  C    0.000000   0.000000   0.000000
    13  C    2.961125   0.000000   0.000000
    14  H    0.000000   0.780300   0.000000
    15  H    0.000000   0.000000   0.235717
 Mulliken charges:
               1
     1  N    0.193615
     2  C    0.137956
     3  C    0.477152
     4  O   -0.339907
     5  N   -0.275495
     6  C    0.406926
     7  C    0.291481
     8  O   -0.138368
     9  N   -0.170906
    10  C    0.399843
    11  C   -1.053539
    12  C    1.048382
    13  C    1.038875
    14  H    0.219700
    15  H    0.764283
 Sum of Mulliken charges =   3.00000
 Mulliken charges with hydrogens summed into heavy atoms:
               1
     1  N    0.193615
     2  C    0.137956
     3  C    0.477152
     4  O   -0.339907
     5  N   -0.275495
     6  C    0.406926
     7  C    0.291481
     8  O   -0.138368
     9  N   -0.170906
    10  C    1.383827
    11  C   -1.053539
    12  C    1.048382
    13  C    1.038875
 Charge=              3.0000 electrons
 Dipole moment (field-independent basis, Debye):
    X=            -17.1098    Y=             -8.6225    Z=             60.3236  Tot=             63.2932
 N-N= 3.496242531134D+02 E-N=-5.185012882823D+02  KE=-1.206763575957D+02
 Leave Link  601 at Wed Jan 12 16:09:13 2022, MaxMem=   402653184 cpu:               1.2 elap:               0.0
 (Enter /work/01114/jfonner/frontera/gaussian/16rC.01/g16/l9999.exe)

 Test job not archived.
 1\1\GINC-C204-029\SP\RPM6\ZDO\C8H2N3O2(3+)\SA748948\12-Jan-2022\0\\#p 
 int=acc2e=12 pm6 charge nosymm int=acc2e=12 scf=(noincfock,novaracc,fe
 rmi,maxcycle=128,ndamp=64,xqc)\\Atom number=15\\3,1\N,0,-6.815,-0.668,
 1.607\C,0,-5.714,0.002,2.373\C,0,-4.357,-0.673,2.588\O,0,-4.212,-1.87,
 2.492\N,0,-3.381,0.125,2.953\C,0,-2.062,-0.39,3.274\C,0,-1.636,0.175,4
 .6\O,0,-1.744,1.356,4.862\N,0,-1.095,-0.7,5.415\C,0,-0.572,-0.311,6.66
 9\C,0,-0.993,-0.045,2.197\C,0,0.39,-0.488,2.64\C,0,-1.378,-0.662,0.897
 \H,0,0.4234133,-0.69379704,6.75571093\H,0,-1.15902642,-0.7322037,7.458
 23218\\Version=ES64L-G16RevC.01\HF=-1.6364465\RMSD=9.244e-09\Dipole=7.
 9725356,-1.506374,4.293895\PG=C01 [X(C8H2N3O2)]\\@


 "THE TIME HAS COME", THE WALRUS SAID,
 "TO TALK OF MANY THINGS,
 OF SHOES AND SHIPS AND SEALING WAX,
 OF CABBAGES AND KINGS,
 AND WHY THE SEA IS BOILING HOT,
 AND WHETHER PIGS HAVE WINGS."
 Job cpu time:       0 days  0 hours  0 minutes 33.7 seconds.
 Elapsed time:       0 days  0 hours  0 minutes  0.9 seconds.
 File lengths (MBytes):  RWF=      6 Int=      0 D2E=      0 Chk=      2 Scr=      1
 Normal termination of Gaussian 16 at Wed Jan 12 16:09:13 2022.
