Atom number=14                                                          
SP        RPM6                                                        ZDO                 
Number of atoms                            I               14
Info1-9                                    I   N=           9
          81          80           0           0           0         111
           1           8        2302
Full Title                                 C   N=           2
Atom number=14          
Route                                      C   N=           3
#p int=acc2e=12 pm6 charge nosymm   
Charge                                     I                0
Multiplicity                               I                1
Number of electrons                        I               52
Number of alpha electrons                  I               26
Number of beta electrons                   I               26
Number of basis functions                  I               44
Number of independent functions            I               44
Number of point charges in /Mol/           I                0
Number of translation vectors              I                0
Atomic numbers                             I   N=          14
           6           8           7           6           6           8
           7           6           6           8           1           1
           1           1
Nuclear charges                            R   N=          14
  4.00000000E+00  6.00000000E+00  5.00000000E+00  4.00000000E+00  4.00000000E+00
  6.00000000E+00  5.00000000E+00  4.00000000E+00  4.00000000E+00  6.00000000E+00
  1.00000000E+00  1.00000000E+00  1.00000000E+00  1.00000000E+00
Current cartesian coordinates              R   N=          42
  5.68051673E+00  8.88171279E-02  2.71383569E+01  5.58980988E+00 -2.20908984E+00
  2.74293747E+01  6.57813664E+00  1.67618707E+00  2.88410001E+01  7.86692986E+00
  7.40772641E-01  3.10708769E+01  6.47042225E+00  1.82358571E+00  3.33177613E+01
  5.92618113E+00  3.98732212E+00  3.32818565E+01  5.99610099E+00  2.43774670E-01
  3.52377230E+01  4.83580915E+00  9.75098680E-01  3.76112191E+01  1.07487622E+01
  1.41729459E+00  3.09707215E+01  1.18372444E+01  2.45664396E-01  2.87918672E+01
  5.10689602E+00  9.47204414E-01  2.53997820E+01  1.17421858E+01  6.84441152E-01
  3.25721419E+01  5.89806459E+00  1.18311104E-01  3.91032112E+01  2.94697379E+00
  2.61302352E-01  3.77175574E+01
Number of symbols in /Mol/                 I                0
Int Atom Types                             I   N=          14
           0           0           0           0           0           0
           0           0           0           0           0           0
           0           0
Force Field                                I                0
Atom Types                                 C   N=          14
                                                            
                                                            
                                                
MM charges                                 R   N=          14
  0.00000000E+00  0.00000000E+00  0.00000000E+00  0.00000000E+00  0.00000000E+00
  0.00000000E+00  0.00000000E+00  0.00000000E+00  0.00000000E+00  0.00000000E+00
  0.00000000E+00  0.00000000E+00  0.00000000E+00  0.00000000E+00
Integer atomic weights                     I   N=          14
          12          16          14          12          12          16
          14          12          12          16           1           1
           1           1
Real atomic weights                        R   N=          14
  1.20000000E+01  1.59949146E+01  1.40030740E+01  1.20000000E+01  1.20000000E+01
  1.59949146E+01  1.40030740E+01  1.20000000E+01  1.20000000E+01  1.59949146E+01
  1.00782504E+00  1.00782504E+00  1.00782504E+00  1.00782504E+00
Atom fragment info                         I   N=          14
           0           0           0           0           0           0
           0           0           0           0           0           0
           0           0
Atom residue num                           I   N=          14
           0           0           0           0           0           0
           0           0           0           0           0           0
           0           0
Nuclear spins                              I   N=          14
           0           0           2           0           0           0
           2           0           0           0           1           1
           1           1
Nuclear ZEff                               R   N=          14
 -3.90000000E+00 -6.00000000E+00 -4.90000000E+00 -3.90000000E+00 -3.90000000E+00
 -6.00000000E+00 -4.90000000E+00 -3.90000000E+00 -3.90000000E+00 -6.00000000E+00
 -1.00000000E+00 -1.00000000E+00 -1.00000000E+00 -1.00000000E+00
Nuclear ZNuc                               R   N=          14
  6.00000000E+00  8.00000000E+00  7.00000000E+00  6.00000000E+00  6.00000000E+00
  8.00000000E+00  7.00000000E+00  6.00000000E+00  6.00000000E+00  8.00000000E+00
  1.00000000E+00  1.00000000E+00  1.00000000E+00  1.00000000E+00
Nuclear QMom                               R   N=          14
  0.00000000E+00  0.00000000E+00  2.04400000E+00  0.00000000E+00  0.00000000E+00
  0.00000000E+00  2.04400000E+00  0.00000000E+00  0.00000000E+00  0.00000000E+00
  0.00000000E+00  0.00000000E+00  0.00000000E+00  0.00000000E+00
Nuclear GFac                               R   N=          14
  0.00000000E+00  0.00000000E+00  4.03761000E-01  0.00000000E+00  0.00000000E+00
  0.00000000E+00  4.03761000E-01  0.00000000E+00  0.00000000E+00  0.00000000E+00
  2.79284600E+00  2.79284600E+00  2.79284600E+00  2.79284600E+00
MicOpt                                     I   N=          14
          -1          -1          -1          -1          -1          -1
          -1          -1          -1          -1          -1          -1
          -1          -1
Number of residues                         I                0
Number of secondary structures             I                0
Number of contracted shells                I               14
Number of primitive shells                 I               84
Pure/Cartesian d shells                    I                0
Pure/Cartesian f shells                    I                0
Highest angular momentum                   I                1
Largest degree of contraction              I                6
Shell types                                I   N=          14
          -1          -1          -1          -1          -1          -1
          -1          -1          -1          -1           0           0
           0           0
Number of primitives per shell             I   N=          14
           6           6           6           6           6           6
           6           6           6           6           6           6
           6           6
Shell to atom map                          I   N=          14
           1           2           3           4           5           6
           7           8           9          10          11          12
          13          14
Primitive exponents                        R   N=          84
  1.14476344E+01  3.29633588E+00  1.29653143E+00  5.92558930E-01  2.94896438E-01
  1.51447622E-01  8.02643074E+01  2.31120341E+01  9.09054165E+00  4.15468650E+00
  2.06764625E+00  1.06186467E+00  1.54719623E+01  4.45513742E+00  1.75231709E+00
  8.00868468E-01  3.98565014E-01  2.04687870E-01  1.14476344E+01  3.29633588E+00
  1.29653143E+00  5.92558930E-01  2.94896438E-01  1.51447622E-01  1.14476344E+01
  3.29633588E+00  1.29653143E+00  5.92558930E-01  2.94896438E-01  1.51447622E-01
  8.02643074E+01  2.31120341E+01  9.09054165E+00  4.15468650E+00  2.06764625E+00
  1.06186467E+00  1.54719623E+01  4.45513742E+00  1.75231709E+00  8.00868468E-01
  3.98565014E-01  2.04687870E-01  1.14476344E+01  3.29633588E+00  1.29653143E+00
  5.92558930E-01  2.94896438E-01  1.51447622E-01  1.14476344E+01  3.29633588E+00
  1.29653143E+00  5.92558930E-01  2.94896438E-01  1.51447622E-01  8.02643074E+01
  2.31120341E+01  9.09054165E+00  4.15468650E+00  2.06764625E+00  1.06186467E+00
  4.39461478E+00  1.26542531E+00  4.97723458E-01  2.27476537E-01  1.13207340E-01
  5.81389949E-02  4.39461478E+00  1.26542531E+00  4.97723458E-01  2.27476537E-01
  1.13207340E-01  5.81389949E-02  4.39461478E+00  1.26542531E+00  4.97723458E-01
  2.27476537E-01  1.13207340E-01  5.81389949E-02  4.39461478E+00  1.26542531E+00
  4.97723458E-01  2.27476537E-01  1.13207340E-01  5.81389949E-02
Contraction coefficients                   R   N=          84
 -9.73739553E-03 -7.26587678E-02 -1.71615520E-01  1.28977624E-01  7.28861451E-01
  3.01331742E-01 -9.73739553E-03 -7.26587678E-02 -1.71615520E-01  1.28977624E-01
  7.28861451E-01  3.01331742E-01 -9.73739553E-03 -7.26587678E-02 -1.71615520E-01
  1.28977624E-01  7.28861451E-01  3.01331742E-01 -9.73739553E-03 -7.26587678E-02
 -1.71615520E-01  1.28977624E-01  7.28861451E-01  3.01331742E-01 -9.73739553E-03
 -7.26587678E-02 -1.71615520E-01  1.28977624E-01  7.28861451E-01  3.01331742E-01
 -9.73739553E-03 -7.26587678E-02 -1.71615520E-01  1.28977624E-01  7.28861451E-01
  3.01331742E-01 -9.73739553E-03 -7.26587678E-02 -1.71615520E-01  1.28977624E-01
  7.28861451E-01  3.01331742E-01 -9.73739553E-03 -7.26587678E-02 -1.71615520E-01
  1.28977624E-01  7.28861451E-01  3.01331742E-01 -9.73739553E-03 -7.26587678E-02
 -1.71615520E-01  1.28977624E-01  7.28861451E-01  3.01331742E-01 -9.73739553E-03
 -7.26587678E-02 -1.71615520E-01  1.28977624E-01  7.28861451E-01  3.01331742E-01
 -9.73739553E-03 -7.26587678E-02 -1.71615520E-01  1.28977624E-01  7.28861451E-01
  3.01331742E-01 -9.73739553E-03 -7.26587678E-02 -1.71615520E-01  1.28977624E-01
  7.28861451E-01  3.01331742E-01 -9.73739553E-03 -7.26587678E-02 -1.71615520E-01
  1.28977624E-01  7.28861451E-01  3.01331742E-01 -9.73739553E-03 -7.26587678E-02
 -1.71615520E-01  1.28977624E-01  7.28861451E-01  3.01331742E-01
P(S=P) Contraction coefficients            R   N=          84
 -8.10494336E-03 -1.71547892E-02  7.36978576E-02  3.96514999E-01  4.97808488E-01
  1.17482582E-01 -8.10494336E-03 -1.71547892E-02  7.36978576E-02  3.96514999E-01
  4.97808488E-01  1.17482582E-01 -8.10494336E-03 -1.71547892E-02  7.36978576E-02
  3.96514999E-01  4.97808488E-01  1.17482582E-01 -8.10494336E-03 -1.71547892E-02
  7.36978576E-02  3.96514999E-01  4.97808488E-01  1.17482582E-01 -8.10494336E-03
 -1.71547892E-02  7.36978576E-02  3.96514999E-01  4.97808488E-01  1.17482582E-01
 -8.10494336E-03 -1.71547892E-02  7.36978576E-02  3.96514999E-01  4.97808488E-01
  1.17482582E-01 -8.10494336E-03 -1.71547892E-02  7.36978576E-02  3.96514999E-01
  4.97808488E-01  1.17482582E-01 -8.10494336E-03 -1.71547892E-02  7.36978576E-02
  3.96514999E-01  4.97808488E-01  1.17482582E-01 -8.10494336E-03 -1.71547892E-02
  7.36978576E-02  3.96514999E-01  4.97808488E-01  1.17482582E-01 -8.10494336E-03
 -1.71547892E-02  7.36978576E-02  3.96514999E-01  4.97808488E-01  1.17482582E-01
  0.00000000E+00  0.00000000E+00  0.00000000E+00  0.00000000E+00  0.00000000E+00
  0.00000000E+00  0.00000000E+00  0.00000000E+00  0.00000000E+00  0.00000000E+00
  0.00000000E+00  0.00000000E+00  0.00000000E+00  0.00000000E+00  0.00000000E+00
  0.00000000E+00  0.00000000E+00  0.00000000E+00  0.00000000E+00  0.00000000E+00
  0.00000000E+00  0.00000000E+00  0.00000000E+00  0.00000000E+00
Coordinates of each shell                  R   N=          42
  5.68051673E+00  8.88171279E-02  2.71383569E+01  5.58980988E+00 -2.20908984E+00
  2.74293747E+01  6.57813664E+00  1.67618707E+00  2.88410001E+01  7.86692986E+00
  7.40772641E-01  3.10708769E+01  6.47042225E+00  1.82358571E+00  3.33177613E+01
  5.92618113E+00  3.98732212E+00  3.32818565E+01  5.99610099E+00  2.43774670E-01
  3.52377230E+01  4.83580915E+00  9.75098680E-01  3.76112191E+01  1.07487622E+01
  1.41729459E+00  3.09707215E+01  1.18372444E+01  2.45664396E-01  2.87918672E+01
  5.10689602E+00  9.47204414E-01  2.53997820E+01  1.17421858E+01  6.84441152E-01
  3.25721419E+01  5.89806459E+00  1.18311104E-01  3.91032112E+01  2.94697379E+00
  2.61302352E-01  3.77175574E+01
Num ILSW                                   I              100
ILSW                                       I   N=         100
           0           0           0           0           2           0
           0           0           0           0           0          -1
           5           0           0           0           0           0
           0           0           0           0           0           0
           1           1           0           0           0           0
           0           0      100000           0          -1           0
           0           0           0           0           0           0
           0           0           0          40           0           0
           0 -2000000000           1           0           0           0
           0           0           4          52           0           0
           0           1           0           0           0           0
           0           0           0          14           0           1
           0           0           0           0           0           0
           0           0           0           0           0           0
           0           0           0           0           0           0
           0           0           0           0           0           0
           0           0           0           0
Num RLSW                                   I               52
RLSW                                       R   N=          52
  1.00000000E+00  1.00000000E+00  1.00000000E+00  1.00000000E+00  1.00000000E+00
  0.00000000E+00  0.00000000E+00  1.00000000E+00  0.00000000E+00  0.00000000E+00
  0.00000000E+00  0.00000000E+00  1.00000000E+00  0.00000000E+00  0.00000000E+00
  0.00000000E+00  0.00000000E+00  1.00000000E+00  0.00000000E+00  0.00000000E+00
  0.00000000E+00  0.00000000E+00  1.00000000E+00  0.00000000E+00  0.00000000E+00
  0.00000000E+00  0.00000000E+00  1.00000000E+00  0.00000000E+00  0.00000000E+00
  0.00000000E+00  0.00000000E+00  1.00000000E+00  0.00000000E+00  0.00000000E+00
  0.00000000E+00  0.00000000E+00  0.00000000E+00  1.00000000E+00  1.00000000E+00
  0.00000000E+00  1.00000000E+00  0.00000000E+00  0.00000000E+00  0.00000000E+00
  0.00000000E+00  0.00000000E+00  0.00000000E+00  0.00000000E+00  0.00000000E+00
  0.00000000E+00  0.00000000E+00
MxBond                                     I                3
NBond                                      I   N=          14
           3           1           2           3           3           1
           2           3           3           1           1           1
           1           1
IBond                                      I   N=          42
           2           3          11           1           0           0
           1           4           0           3           5           9
           4           6           7           5           0           0
           5           8           0           7          13          14
           4          10          12           9           0           0
           1           0           0           9           0           0
           8           0           0           8           0           0
RBond                                      R   N=          42
  2.00000000E+00  1.50000000E+00  1.00000000E+00  2.00000000E+00  0.00000000E+00
  0.00000000E+00  1.50000000E+00  1.00000000E+00  0.00000000E+00  1.00000000E+00
  1.00000000E+00  1.00000000E+00  1.00000000E+00  2.00000000E+00  1.50000000E+00
  2.00000000E+00  0.00000000E+00  0.00000000E+00  1.50000000E+00  1.00000000E+00
  0.00000000E+00  1.00000000E+00  1.00000000E+00  1.00000000E+00  1.00000000E+00
  1.00000000E+00  1.00000000E+00  1.00000000E+00  0.00000000E+00  0.00000000E+00
  1.00000000E+00  0.00000000E+00  0.00000000E+00  1.00000000E+00  0.00000000E+00
  0.00000000E+00  1.00000000E+00  0.00000000E+00  0.00000000E+00  1.00000000E+00
  0.00000000E+00  0.00000000E+00
Virial Ratio                               R      9.737827202820643E-01
SCF Energy                                 R     -2.944254667672226E+00
Total Energy                               R     -2.944254667672226E+00
RMS Density                                R      3.833349152706039E-09
Job Status                                 I                1
Nuclear derivative order                   I                0
External E-field                           R   N=          35
  0.00000000E+00  0.00000000E+00  0.00000000E+00  0.00000000E+00  0.00000000E+00
  0.00000000E+00  0.00000000E+00  0.00000000E+00  0.00000000E+00  0.00000000E+00
  0.00000000E+00  0.00000000E+00  0.00000000E+00  0.00000000E+00  0.00000000E+00
  0.00000000E+00  0.00000000E+00  0.00000000E+00  0.00000000E+00  0.00000000E+00
  0.00000000E+00  0.00000000E+00  0.00000000E+00  0.00000000E+00  0.00000000E+00
  0.00000000E+00  0.00000000E+00  0.00000000E+00  0.00000000E+00  0.00000000E+00
  0.00000000E+00  0.00000000E+00  0.00000000E+00  0.00000000E+00  0.00000000E+00
IOpCl                                      I                0
IROHF                                      I                0
Alpha Orbital Energies                     R   N=          44
 -1.41991983E+00 -1.38819972E+00 -1.33880045E+00 -1.29931061E+00 -1.28523906E+00
 -1.21362755E+00 -1.14503599E+00 -1.08350160E+00 -9.54993156E-01 -9.26237870E-01
 -8.34835798E-01 -8.10046772E-01 -7.91365786E-01 -7.83500216E-01 -7.68310058E-01
 -7.55759725E-01 -7.20475432E-01 -7.04280273E-01 -6.97115923E-01 -6.57908547E-01
 -6.43828704E-01 -6.22969508E-01 -5.89107521E-01 -5.65501028E-01 -5.54113187E-01
 -5.38889302E-01 -3.33558361E-01 -2.76561956E-01 -2.39280569E-01 -2.31755368E-01
 -1.68129873E-01 -1.46076599E-01 -1.42477599E-01 -1.23187907E-01 -1.16423155E-01
 -1.03045426E-01 -7.20070144E-02 -3.13759443E-02 -2.86847652E-02 -1.14028305E-03
  2.96651283E-04  7.78022344E-03  2.72129227E-02  6.10222872E-02
Alpha MO coefficients                      R   N=        1936
  1.18580440E-01  2.05080120E-02 -1.91080352E-03  5.40470198E-02  7.12611773E-02
  7.40388201E-03  5.49612052E-02  5.73517475E-03  2.18782845E-01  8.17475077E-03
 -5.59540814E-02  4.90411791E-02  2.30672124E-01 -6.20484063E-02  7.68471540E-02
  3.11242208E-02  5.18345806E-01 -5.78277207E-02  2.10981369E-01  1.36574367E-02
  5.59707307E-01  7.91849760E-02 -3.10780202E-01  7.03095400E-03  2.68055123E-01
  1.96968329E-04  1.30781952E-01 -7.14216072E-02  7.88201930E-02  2.41321687E-02
  3.45725449E-03 -6.16317868E-02  9.48156923E-02 -4.32456498E-02 -1.14076881E-02
  1.22423337E-02  2.47224924E-02 -1.39836681E-02  7.48624262E-03  1.91203880E-02
  3.01883730E-02  7.22148426E-02  2.08712493E-02  2.25257339E-02  4.82287367E-01
  5.55690517E-02 -7.72268285E-02  1.47046727E-01  3.83659375E-01  2.49735927E-02
  2.48909886E-01  2.71674680E-03  5.12548180E-01 -2.08496643E-02 -1.95494623E-01
 -4.52663634E-02  1.97001283E-01 -3.44272334E-02  5.54062646E-03 -1.46191425E-01
 -1.34636057E-01  4.71354145E-02 -9.81704682E-02 -7.89598589E-02 -2.17099875E-01
 -1.98709567E-02  1.00391604E-01 -2.45383379E-02 -1.19625440E-01  6.92743751E-03
 -5.53254076E-02  8.69905117E-03 -4.83741107E-02 -1.26798431E-02  8.72596240E-04
  3.06141971E-02  1.06993652E-01 -2.63684179E-02 -2.92610802E-02 -2.68927439E-02
  8.33568874E-02 -2.86550870E-02  1.63041356E-02  3.60526760E-02  1.37229893E-01
  6.68246078E-02 -1.45157795E-02 -1.44818711E-02 -1.64246058E-01  1.13529445E-02
  9.17453150E-02 -1.53056974E-02 -2.27164142E-01 -2.25607040E-03 -1.10383747E-01
  1.21173048E-02 -5.93925282E-04  6.10450722E-02  2.84775564E-02  6.17476889E-02
  2.00062151E-01  1.28513781E-01  2.38647441E-02  4.08414299E-03 -1.43909843E-03
  5.81004281E-02 -6.67201922E-02 -3.79431700E-02 -1.08804356E-01  4.55124484E-03
  3.22542902E-02 -1.22565441E-02 -1.14165881E-02  1.54090267E-02 -1.23503212E-02
 -1.22800134E-02 -1.63585886E-02 -1.90144210E-03  4.52008875E-04  7.74793269E-03
  5.01873979E-01  6.12322190E-02 -1.40149617E-01 -4.68241645E-02  5.19820764E-01
 -8.89732255E-02  7.98657002E-02  2.05255886E-01 -5.15593322E-02  4.52425641E-01
 -5.00502102E-03 -5.66673128E-03  3.55971851E-02 -1.55348287E-02 -8.29385372E-02
 -1.40576200E-02  1.40567475E-01 -1.81377056E-03  4.75545019E-02 -1.15595553E-02
 -1.02175383E-01 -1.12432006E-02  1.12586386E-03 -1.81702442E-02 -4.01536543E-03
  1.70551198E-03 -4.06647128E-02  7.34412449E-02  1.38517209E-01 -6.29124440E-03
 -3.33691592E-01  2.14494744E-01 -3.89115559E-01 -3.82786120E-02  5.13997968E-02
  6.05015419E-02  6.73741048E-01 -2.66909439E-02  1.43667045E-01 -1.09385221E-02
  3.00828362E-01  6.53631449E-02 -4.53480144E-02 -1.42561826E-01  5.03538242E-03
  1.00674994E-02 -8.31859771E-03  1.58803017E-02 -3.30647993E-03  3.84333035E-03
 -2.32985298E-03  2.93888164E-03  8.82069222E-03  2.78859714E-02  1.08539187E-01
  9.92810073E-02  8.00389903E-02 -7.38696063E-02 -3.59103314E-01 -8.62469276E-02
  5.77444132E-01 -1.07631653E-02  1.71590937E-01 -5.36536363E-02 -4.69201397E-01
 -1.78704377E-02  6.57758081E-02 -4.36961992E-02 -2.35540438E-01  9.55431486E-02
 -4.98307799E-02  8.26943968E-02 -4.50146736E-02 -3.83137424E-02  1.35011516E-01
  4.64731074E-02  1.90353563E-01  5.77379522E-03 -3.03886244E-02  2.01710196E-02
 -8.88918367E-02 -6.03045518E-03 -6.89773746E-03  2.61470491E-02 -2.13235597E-02
 -5.67176601E-03  5.95135911E-03  1.23605121E-02  8.78659900E-02  1.09102412E-01
 -4.71708241E-02 -3.58840041E-02  2.68151151E-01 -1.31725886E-02  2.73208774E-02
  6.99406095E-02  1.58727314E-02  1.14836301E-01 -7.82940734E-03 -7.11905034E-03
  9.73020120E-02  2.54173404E-02  1.43231254E-01  3.11294993E-02 -1.68912147E-01
  6.60905485E-03 -7.15283176E-03  1.32707227E-02  1.48552185E-01 -6.47466044E-02
 -4.17655891E-02 -1.21046643E-01 -2.52037533E-01 -7.32584676E-02 -4.46655640E-02
 -1.07769296E-01 -9.02231753E-02 -1.01088235E-01  7.77511026E-02  9.77864564E-02
  1.07608219E-01 -3.17244879E-02  3.20629273E-03  3.58343138E-02  9.37048074E-02
 -5.34963503E-02  2.14056192E-02  8.42560882E-02  1.30494463E-01  1.35783596E-02
 -2.05277787E-02 -3.38059610E-02 -2.27596665E-01  1.09824416E-01 -2.50918010E-02
 -2.78925260E-01  6.48597066E-01 -1.93825832E-02  3.32217353E-02  7.92493323E-03
  5.31179170E-02 -3.95043372E-01  5.31542134E-02  4.90233696E-02  1.99423911E-01
  1.65533952E-02  1.65750101E-01  3.11247539E-03 -1.70500417E-01  3.77011824E-03
  3.52488340E-02 -1.85343776E-03  7.74810467E-02 -1.05849877E-01 -4.11118118E-02
 -2.46583620E-01 -3.26837705E-01  1.11194917E-01 -6.38684219E-02 -7.99633737E-02
 -2.58787996E-01 -9.13919216E-02  1.84471497E-01  1.21365639E-01  2.11030801E-01
 -3.50124209E-02  6.18458443E-02  5.39702410E-02  4.73107588E-02 -1.00355057E-01
 -1.04121272E-02  2.43316872E-01  3.13420004E-01  1.57237586E-02 -5.57586082E-02
 -2.62354053E-02  1.29051064E-01  1.31611886E-01 -1.27979439E-02  1.54983665E-01
 -2.63093577E-01  2.73697309E-02  2.28907074E-03  5.39161773E-02  1.18893711E-01
  3.99162126E-01  1.46733072E-01  1.27542285E-01 -2.49438354E-01  1.95713173E-02
 -1.59356615E-01  3.76583173E-02  1.70911533E-01  7.31468720E-03 -6.81193959E-02
  1.93456433E-02  4.37844780E-02  1.74122010E-01  2.76740812E-02  2.70193275E-01
  2.55393757E-01  1.76005846E-02  7.86940087E-02 -1.48283617E-01 -1.80182883E-01
  3.62978357E-02  1.18815415E-01 -1.68119642E-01  7.30810866E-02  8.09521583E-03
  6.46612110E-02 -7.03526820E-02 -6.30595963E-02 -1.25870178E-01 -8.10743156E-02
  3.21072263E-01  4.91383518E-01 -1.01224166E-02 -9.84550176E-02  3.90741048E-02
  4.57262680E-02 -1.44667794E-01  1.53984973E-02 -6.95868104E-02 -1.85377930E-02
 -5.03689629E-02  8.62222089E-03 -1.18485436E-02 -1.69246517E-01 -1.68019209E-01
  2.58423218E-01  2.20838046E-01  3.27306612E-01 -1.10174581E-01  9.86033020E-02
 -2.38181762E-01 -2.21463809E-01 -4.56237313E-02  1.58913820E-01 -1.21883168E-01
 -2.70150968E-01 -9.58511175E-02  2.81464587E-02 -1.59142870E-01  1.92117517E-01
  9.85101267E-02  1.62138509E-02  3.06233252E-01  1.61646734E-01  1.80868737E-01
 -1.59462846E-02 -2.06896055E-01 -1.14612911E-01  1.14675721E-01 -7.84642666E-02
 -1.01244867E-01 -1.76821575E-01  2.69079474E-02 -4.62078894E-02  3.24135904E-02
  2.32931972E-01 -5.39270513E-02 -3.88313248E-02  1.46761491E-01  5.76613251E-02
 -1.54723421E-01  2.18817355E-03 -5.93572602E-03  4.36089249E-02 -3.10292542E-02
 -1.18573994E-02 -3.02522594E-02  3.28196141E-01 -1.70618736E-01  1.67943996E-01
  1.33644380E-01  7.45089161E-02  3.30794504E-02  7.14648753E-03 -9.99234037E-02
 -5.80225003E-02  1.75517850E-02  4.04694343E-02 -5.26962626E-02 -8.64436229E-02
  1.56386560E-01 -1.44425468E-02 -9.60409356E-02  1.00283935E-01  3.75933693E-01
 -2.54095936E-02 -1.52006841E-01 -1.70761875E-01 -1.75620587E-02  3.60607648E-02
  1.99396601E-01  1.62249131E-01 -3.37761206E-02  1.36706746E-01  1.20338312E-01
  1.64213897E-01  1.27408925E-02  2.87419665E-02  3.55007255E-02 -1.77516505E-01
  7.20028253E-02  2.50451957E-02 -1.37985804E-01  3.43424260E-01 -2.82074463E-01
 -1.09161754E-02 -2.11314033E-01 -1.95509737E-01 -2.39312427E-01  1.19118776E-01
  1.41681349E-01  8.71184787E-02 -3.62444490E-01 -1.31070939E-01 -1.17554795E-01
  8.13739784E-02 -8.31657763E-02 -4.72330900E-02 -1.76923121E-01 -1.12200083E-01
 -4.28088105E-02  1.00769624E-01 -1.19258613E-01 -6.36627501E-02  7.29554145E-02
  1.42550975E-02  1.54848323E-01  1.91427295E-01 -4.81543712E-02  9.58011178E-03
 -1.39985834E-02 -1.98922590E-01  7.78960260E-02 -5.18495223E-02 -1.27548159E-01
  2.66801845E-01 -2.73508400E-02  3.20476940E-01 -1.12110288E-01  2.60879926E-01
 -2.92427548E-02 -1.41432211E-01  1.86193634E-01 -1.56383329E-01  1.38897012E-01
 -5.25127564E-02 -2.20831298E-01 -1.94899292E-01 -1.10685357E-01  7.66087279E-03
  2.19656857E-01  1.98004559E-01  1.38446921E-01 -2.24659947E-01 -2.85094220E-01
  1.48781948E-01  1.59119088E-01 -1.25789969E-01 -1.36815740E-01 -6.34322357E-02
  1.86603812E-01  5.84897963E-02  3.07218418E-01  9.04044556E-02  1.19042005E-01
 -8.05669853E-02  2.13167643E-01 -2.92418777E-02 -7.20224079E-02 -1.45536144E-01
 -3.02252512E-01  6.42486929E-02  2.49362748E-01 -1.21282270E-01  1.76209056E-01
 -1.24447025E-03  2.80233165E-01  4.61362797E-03  1.58689728E-01  9.42087959E-02
  2.11575122E-01  1.48282182E-01  1.64680467E-01 -3.48247716E-02  2.08998078E-01
  2.55620524E-02  2.42789668E-04  3.43499338E-02  5.86090621E-02  8.03803025E-03
  1.25523977E-01 -4.40116876E-02 -2.43257960E-01 -3.18893395E-02  1.82108494E-01
  1.46249843E-01  2.41319055E-02 -2.17377380E-01 -2.36690593E-01 -2.35322112E-01
 -1.11477628E-02  9.88652174E-02 -1.22017696E-02 -5.69449840E-02 -3.00747129E-02
  1.31920985E-01 -2.74867551E-01  2.32790004E-01 -4.39978305E-02 -2.75629186E-01
 -1.70877531E-01  2.42636356E-01  1.29265814E-01  3.10094365E-01 -3.46254856E-02
 -1.37652091E-01  1.13251998E-01  2.37811780E-01 -7.01961606E-02  2.35438554E-02
  1.66029009E-01  2.26297550E-01  1.25107339E-01 -2.43738559E-01  2.74022703E-01
 -2.12057041E-01  1.15503543E-01 -2.93363402E-02  7.62974204E-02  1.07896381E-01
  1.87781691E-01 -3.04520540E-02  1.40391040E-01  3.37047494E-02 -8.13646980E-02
  3.61396149E-03 -7.86791233E-02  1.15969815E-01  7.72720609E-02  7.82241179E-02
  5.75074237E-02 -2.73378631E-02 -1.61790670E-01  1.81407181E-01  3.74763060E-02
 -1.46820615E-02 -9.55790096E-02  4.27655221E-02  9.25838715E-02 -1.36708295E-01
 -1.43082067E-01 -1.64804860E-01  9.85556725E-02  1.71004444E-01 -1.30773668E-01
 -6.27893157E-02  2.87596067E-01 -8.65956006E-02  1.05749065E-01  7.35766764E-02
  1.00893892E-01 -6.53511401E-02 -2.78668070E-01  1.58560774E-02 -2.40011269E-01
  1.32463319E-02  2.62859885E-01 -9.06625897E-02 -1.87519189E-01 -1.62557806E-01
  2.68857608E-01 -1.97521885E-01 -6.32905231E-02  1.87407030E-01 -2.06085276E-01
  9.30247486E-02 -1.85928607E-01  8.99375063E-02  1.15126823E-01 -1.03303819E-01
 -1.75111406E-01 -3.28148829E-02  1.35487730E-01  1.09353800E-01  6.73618200E-03
 -2.15157193E-01 -2.39783270E-01  5.03822961E-02  1.19116816E-01  1.64602305E-02
  1.28081974E-01  5.94722133E-02  6.20431728E-02 -1.97562909E-01  1.96515324E-01
 -2.74376969E-01  7.92365510E-02  3.58659107E-01  1.02024655E-01 -1.60519969E-01
  9.97427691E-03 -2.00412203E-01  7.02106477E-02 -1.86326417E-02 -1.94697808E-02
 -9.40310363E-03 -7.47042185E-02  1.60378042E-02  8.30878489E-02  2.69431430E-01
 -4.71843394E-02 -2.90348471E-01  2.35915100E-01 -3.31569450E-01 -1.48495900E-02
  6.88114434E-03 -5.74617781E-02  5.15028702E-02  3.37453311E-01 -7.10838778E-02
  1.96907409E-01  5.99218688E-03 -2.47952036E-01 -1.20872352E-02  2.81658654E-02
  3.25652489E-03 -1.07453791E-02 -8.24175569E-03  5.22278195E-04  1.23407479E-02
  1.07663217E-02 -1.67178453E-01  1.20321421E-02 -9.38333031E-02 -1.46240173E-01
  2.05378275E-02 -4.95642521E-02 -1.51075720E-01 -9.15292716E-02 -1.62682467E-01
 -2.28629855E-02  1.99364891E-01 -1.11165281E-01  2.45759612E-02  1.11381848E-01
 -8.97795224E-03  2.29584000E-01 -2.52678290E-02 -1.84736082E-01  3.13551777E-02
 -1.25609141E-01 -1.28230588E-03  2.93084716E-01 -3.93482577E-02  2.25600942E-01
  1.25567557E-01  2.71355875E-01  2.46610284E-01  2.16532344E-01 -7.94456227E-03
  3.66027424E-01  4.56494732E-02 -7.41893751E-02  2.72017628E-02  1.73743295E-01
  7.42855303E-03  2.92215467E-01 -6.33696179E-02  2.16115219E-01  1.87234394E-02
 -1.08435479E-01 -6.97638005E-02  4.55267330E-02  1.49676732E-01  1.49382389E-01
  2.67579524E-02  3.31598800E-02  2.32986335E-01 -7.39457950E-02 -7.84712474E-04
  5.21027883E-01 -1.59414948E-02 -1.90272071E-01  2.77376040E-02  5.88717093E-01
 -8.18903840E-02 -1.96760500E-01 -3.39183497E-02  3.18740614E-01 -4.51996468E-02
 -2.14977859E-01 -1.82500592E-02 -5.77019195E-02 -3.75015715E-02  2.35570450E-02
  4.26085629E-02  1.97669602E-02 -3.21762006E-02 -1.45590730E-01  1.19892659E-02
  2.40746117E-02 -1.16062227E-02 -2.11548752E-01  7.46045903E-02  1.68054894E-02
 -1.17791571E-01 -3.25622441E-03 -2.56770039E-02  4.46862093E-02 -6.15916424E-02