Atom number=11                                                          
SP        RPM6                                                        ZDO                 
Number of atoms                            I               11
Info1-9                                    I   N=           9
          80          79           0           0           0         111
           1           8        2302
Full Title                                 C   N=           2
Atom number=11          
Route                                      C   N=           3
#p int=acc2e=12 pm6 charge nosymm   
Charge                                     I                1
Multiplicity                               I                1
Number of electrons                        I               40
Number of alpha electrons                  I               20
Number of beta electrons                   I               20
Number of basis functions                  I               35
Number of independent functions            I               35
Number of point charges in /Mol/           I                0
Number of translation vectors              I                0
Atomic numbers                             I   N=          11
           6           8           7           6           6           8
           7           6           1           1           1
Nuclear charges                            R   N=          11
  4.00000000E+00  6.00000000E+00  5.00000000E+00  4.00000000E+00  4.00000000E+00
  6.00000000E+00  5.00000000E+00  4.00000000E+00  1.00000000E+00  1.00000000E+00
  1.00000000E+00
Current cartesian coordinates              R   N=          33
  7.39071887E+00  4.87549340E-01  1.55505563E+01  7.67984697E+00  2.79301521E+00
  1.55486666E+01  8.24676481E+00 -9.95885668E-01  1.73646934E+01  9.57524227E+00
  3.77945225E-02  1.95133120E+01  8.07102028E+00  1.54390624E+00  2.13463463E+01
  8.23731618E+00  3.84181321E+00  2.14805169E+01  6.59892363E+00  1.96531517E-01
  2.28146635E+01  4.88494203E+00  1.27934459E+00  2.47270663E+01  6.42289447E+00
 -4.35916448E-01  1.40342981E+01  5.45856275E+00  4.20957300E-01  2.64656412E+01
  2.94639187E+00  8.17974964E-01  2.43840307E+01
Number of symbols in /Mol/                 I                0
Int Atom Types                             I   N=          11
           0           0           0           0           0           0
           0           0           0           0           0
Force Field                                I                0
Atom Types                                 C   N=          11
                                                            
                                                            
            
MM charges                                 R   N=          11
  0.00000000E+00  0.00000000E+00  0.00000000E+00  0.00000000E+00  0.00000000E+00
  0.00000000E+00  0.00000000E+00  0.00000000E+00  0.00000000E+00  0.00000000E+00
  0.00000000E+00
Integer atomic weights                     I   N=          11
          12          16          14          12          12          16
          14          12           1           1           1
Real atomic weights                        R   N=          11
  1.20000000E+01  1.59949146E+01  1.40030740E+01  1.20000000E+01  1.20000000E+01
  1.59949146E+01  1.40030740E+01  1.20000000E+01  1.00782504E+00  1.00782504E+00
  1.00782504E+00
Atom fragment info                         I   N=          11
           0           0           0           0           0           0
           0           0           0           0           0
Atom residue num                           I   N=          11
           0           0           0           0           0           0
           0           0           0           0           0
Nuclear spins                              I   N=          11
           0           0           2           0           0           0
           2           0           1           1           1
Nuclear ZEff                               R   N=          11
 -3.90000000E+00 -6.00000000E+00 -4.90000000E+00 -3.90000000E+00 -3.90000000E+00
 -6.00000000E+00 -4.90000000E+00 -3.90000000E+00 -1.00000000E+00 -1.00000000E+00
 -1.00000000E+00
Nuclear ZNuc                               R   N=          11
  6.00000000E+00  8.00000000E+00  7.00000000E+00  6.00000000E+00  6.00000000E+00
  8.00000000E+00  7.00000000E+00  6.00000000E+00  1.00000000E+00  1.00000000E+00
  1.00000000E+00
Nuclear QMom                               R   N=          11
  0.00000000E+00  0.00000000E+00  2.04400000E+00  0.00000000E+00  0.00000000E+00
  0.00000000E+00  2.04400000E+00  0.00000000E+00  0.00000000E+00  0.00000000E+00
  0.00000000E+00
Nuclear GFac                               R   N=          11
  0.00000000E+00  0.00000000E+00  4.03761000E-01  0.00000000E+00  0.00000000E+00
  0.00000000E+00  4.03761000E-01  0.00000000E+00  2.79284600E+00  2.79284600E+00
  2.79284600E+00
MicOpt                                     I   N=          11
          -1          -1          -1          -1          -1          -1
          -1          -1          -1          -1          -1
Number of residues                         I                0
Number of secondary structures             I                0
Number of contracted shells                I               11
Number of primitive shells                 I               66
Pure/Cartesian d shells                    I                0
Pure/Cartesian f shells                    I                0
Highest angular momentum                   I                1
Largest degree of contraction              I                6
Shell types                                I   N=          11
          -1          -1          -1          -1          -1          -1
          -1          -1           0           0           0
Number of primitives per shell             I   N=          11
           6           6           6           6           6           6
           6           6           6           6           6
Shell to atom map                          I   N=          11
           1           2           3           4           5           6
           7           8           9          10          11
Primitive exponents                        R   N=          66
  1.14476344E+01  3.29633588E+00  1.29653143E+00  5.92558930E-01  2.94896438E-01
  1.51447622E-01  8.02643074E+01  2.31120341E+01  9.09054165E+00  4.15468650E+00
  2.06764625E+00  1.06186467E+00  1.54719623E+01  4.45513742E+00  1.75231709E+00
  8.00868468E-01  3.98565014E-01  2.04687870E-01  1.14476344E+01  3.29633588E+00
  1.29653143E+00  5.92558930E-01  2.94896438E-01  1.51447622E-01  1.14476344E+01
  3.29633588E+00  1.29653143E+00  5.92558930E-01  2.94896438E-01  1.51447622E-01
  8.02643074E+01  2.31120341E+01  9.09054165E+00  4.15468650E+00  2.06764625E+00
  1.06186467E+00  1.54719623E+01  4.45513742E+00  1.75231709E+00  8.00868468E-01
  3.98565014E-01  2.04687870E-01  1.14476344E+01  3.29633588E+00  1.29653143E+00
  5.92558930E-01  2.94896438E-01  1.51447622E-01  4.39461478E+00  1.26542531E+00
  4.97723458E-01  2.27476537E-01  1.13207340E-01  5.81389949E-02  4.39461478E+00
  1.26542531E+00  4.97723458E-01  2.27476537E-01  1.13207340E-01  5.81389949E-02
  4.39461478E+00  1.26542531E+00  4.97723458E-01  2.27476537E-01  1.13207340E-01
  5.81389949E-02
Contraction coefficients                   R   N=          66
 -9.73739553E-03 -7.26587678E-02 -1.71615520E-01  1.28977624E-01  7.28861451E-01
  3.01331742E-01 -9.73739553E-03 -7.26587678E-02 -1.71615520E-01  1.28977624E-01
  7.28861451E-01  3.01331742E-01 -9.73739553E-03 -7.26587678E-02 -1.71615520E-01
  1.28977624E-01  7.28861451E-01  3.01331742E-01 -9.73739553E-03 -7.26587678E-02
 -1.71615520E-01  1.28977624E-01  7.28861451E-01  3.01331742E-01 -9.73739553E-03
 -7.26587678E-02 -1.71615520E-01  1.28977624E-01  7.28861451E-01  3.01331742E-01
 -9.73739553E-03 -7.26587678E-02 -1.71615520E-01  1.28977624E-01  7.28861451E-01
  3.01331742E-01 -9.73739553E-03 -7.26587678E-02 -1.71615520E-01  1.28977624E-01
  7.28861451E-01  3.01331742E-01 -9.73739553E-03 -7.26587678E-02 -1.71615520E-01
  1.28977624E-01  7.28861451E-01  3.01331742E-01 -9.73739553E-03 -7.26587678E-02
 -1.71615520E-01  1.28977624E-01  7.28861451E-01  3.01331742E-01 -9.73739553E-03
 -7.26587678E-02 -1.71615520E-01  1.28977624E-01  7.28861451E-01  3.01331742E-01
 -9.73739553E-03 -7.26587678E-02 -1.71615520E-01  1.28977624E-01  7.28861451E-01
  3.01331742E-01
P(S=P) Contraction coefficients            R   N=          66
 -8.10494336E-03 -1.71547892E-02  7.36978576E-02  3.96514999E-01  4.97808488E-01
  1.17482582E-01 -8.10494336E-03 -1.71547892E-02  7.36978576E-02  3.96514999E-01
  4.97808488E-01  1.17482582E-01 -8.10494336E-03 -1.71547892E-02  7.36978576E-02
  3.96514999E-01  4.97808488E-01  1.17482582E-01 -8.10494336E-03 -1.71547892E-02
  7.36978576E-02  3.96514999E-01  4.97808488E-01  1.17482582E-01 -8.10494336E-03
 -1.71547892E-02  7.36978576E-02  3.96514999E-01  4.97808488E-01  1.17482582E-01
 -8.10494336E-03 -1.71547892E-02  7.36978576E-02  3.96514999E-01  4.97808488E-01
  1.17482582E-01 -8.10494336E-03 -1.71547892E-02  7.36978576E-02  3.96514999E-01
  4.97808488E-01  1.17482582E-01 -8.10494336E-03 -1.71547892E-02  7.36978576E-02
  3.96514999E-01  4.97808488E-01  1.17482582E-01  0.00000000E+00  0.00000000E+00
  0.00000000E+00  0.00000000E+00  0.00000000E+00  0.00000000E+00  0.00000000E+00
  0.00000000E+00  0.00000000E+00  0.00000000E+00  0.00000000E+00  0.00000000E+00
  0.00000000E+00  0.00000000E+00  0.00000000E+00  0.00000000E+00  0.00000000E+00
  0.00000000E+00
Coordinates of each shell                  R   N=          33
  7.39071887E+00  4.87549340E-01  1.55505563E+01  7.67984697E+00  2.79301521E+00
  1.55486666E+01  8.24676481E+00 -9.95885668E-01  1.73646934E+01  9.57524227E+00
  3.77945225E-02  1.95133120E+01  8.07102028E+00  1.54390624E+00  2.13463463E+01
  8.23731618E+00  3.84181321E+00  2.14805169E+01  6.59892363E+00  1.96531517E-01
  2.28146635E+01  4.88494203E+00  1.27934459E+00  2.47270663E+01  6.42289447E+00
 -4.35916448E-01  1.40342981E+01  5.45856275E+00  4.20957300E-01  2.64656412E+01
  2.94639187E+00  8.17974964E-01  2.43840307E+01
Num ILSW                                   I              100
ILSW                                       I   N=         100
           0           0           0           0           2           0
           0           0           0           0           0          -1
           5           0           0           0           0           0
           0           0           0           0           0           0
           1           1           0           0           0           0
           0           0      100000           0          -1           0
           0           0           0           0           0           0
           0           0           0          40           0           0
           0 -2000000000           1           0           0           0
           0           0           4          52           0           0
           0           1           0           0           0           0
           0           0           0          11           0           1
           0           0           0           0           0           0
           0           0           0           0           0           0
           0           0           0           0           0           0
           0           0           0           0           0           0
           0           0           0           0
Num RLSW                                   I               52
RLSW                                       R   N=          52
  1.00000000E+00  1.00000000E+00  1.00000000E+00  1.00000000E+00  1.00000000E+00
  0.00000000E+00  0.00000000E+00  1.00000000E+00  0.00000000E+00  0.00000000E+00
  0.00000000E+00  0.00000000E+00  1.00000000E+00  0.00000000E+00  0.00000000E+00
  0.00000000E+00  0.00000000E+00  1.00000000E+00  0.00000000E+00  0.00000000E+00
  0.00000000E+00  0.00000000E+00  1.00000000E+00  0.00000000E+00  0.00000000E+00
  0.00000000E+00  0.00000000E+00  1.00000000E+00  0.00000000E+00  0.00000000E+00
  0.00000000E+00  0.00000000E+00  1.00000000E+00  0.00000000E+00  0.00000000E+00
  0.00000000E+00  0.00000000E+00  0.00000000E+00  1.00000000E+00  1.00000000E+00
  0.00000000E+00  1.00000000E+00  0.00000000E+00  0.00000000E+00  0.00000000E+00
  0.00000000E+00  0.00000000E+00  0.00000000E+00  0.00000000E+00  0.00000000E+00
  0.00000000E+00  0.00000000E+00
MxBond                                     I                3
NBond                                      I   N=          11
           3           1           2           2           3           1
           2           3           1           1           1
IBond                                      I   N=          33
           2           3           9           1           0           0
           1           4           0           3           5           0
           4           6           7           5           0           0
           5           8           0           7          10          11
           1           0           0           8           0           0
           8           0           0
RBond                                      R   N=          33
  2.00000000E+00  1.50000000E+00  1.00000000E+00  2.00000000E+00  0.00000000E+00
  0.00000000E+00  1.50000000E+00  1.00000000E+00  0.00000000E+00  1.00000000E+00
  1.00000000E+00  0.00000000E+00  1.00000000E+00  2.00000000E+00  1.50000000E+00
  2.00000000E+00  0.00000000E+00  0.00000000E+00  1.50000000E+00  1.00000000E+00
  0.00000000E+00  1.00000000E+00  1.00000000E+00  1.00000000E+00  1.00000000E+00
  0.00000000E+00  0.00000000E+00  1.00000000E+00  0.00000000E+00  0.00000000E+00
  1.00000000E+00  0.00000000E+00  0.00000000E+00
Virial Ratio                               R      9.542570393613850E-01
SCF Energy                                 R     -3.977923077406615E+00
Total Energy                               R     -3.977923077406615E+00
RMS Density                                R      5.071075343732469E-09
Job Status                                 I                1
Nuclear derivative order                   I                0
External E-field                           R   N=          35
  0.00000000E+00  0.00000000E+00  0.00000000E+00  0.00000000E+00  0.00000000E+00
  0.00000000E+00  0.00000000E+00  0.00000000E+00  0.00000000E+00  0.00000000E+00
  0.00000000E+00  0.00000000E+00  0.00000000E+00  0.00000000E+00  0.00000000E+00
  0.00000000E+00  0.00000000E+00  0.00000000E+00  0.00000000E+00  0.00000000E+00
  0.00000000E+00  0.00000000E+00  0.00000000E+00  0.00000000E+00  0.00000000E+00
  0.00000000E+00  0.00000000E+00  0.00000000E+00  0.00000000E+00  0.00000000E+00
  0.00000000E+00  0.00000000E+00  0.00000000E+00  0.00000000E+00  0.00000000E+00
IOpCl                                      I                0
IROHF                                      I                0
Alpha Orbital Energies                     R   N=          35
 -1.36487350E+00 -1.34500333E+00 -1.25921506E+00 -1.24331286E+00 -1.10343473E+00
 -1.00712199E+00 -9.09495769E-01 -8.02016996E-01 -7.54895399E-01 -7.41692197E-01
 -7.28442933E-01 -7.15544441E-01 -6.95953291E-01 -6.26530068E-01 -6.09245524E-01
 -5.74438293E-01 -5.67429798E-01 -5.37520792E-01 -5.26036152E-01 -4.82882615E-01
 -2.66497171E-01 -2.06713425E-01 -1.57799780E-01 -1.16927132E-01 -1.11483037E-01
 -7.78011631E-02 -5.74986342E-02 -2.97567261E-02  1.42419158E-03  9.59224046E-03
  2.96953999E-02  4.61858294E-02  7.93434901E-02  9.91033557E-02  3.08445562E-01
Alpha MO coefficients                      R   N=        1225
  4.05873628E-01  7.66469053E-02  6.85755998E-02  1.25592962E-01  3.13418752E-01
 -9.04095635E-03 -2.08085048E-01  3.26564152E-02  4.76266981E-01 -7.69362660E-03
  1.88406421E-01 -2.11688234E-02  2.67348964E-01 -1.17889695E-01  2.61313570E-02
 -6.32679507E-02  3.55004662E-01 -3.01293297E-02  4.19485341E-02 -4.53719989E-03
  2.47183168E-01 -2.00223855E-02 -1.69263508E-01 -1.23479894E-02  2.48320159E-01
  5.12200686E-02  9.43419482E-02 -6.36727755E-02  6.04665170E-02  3.43543684E-02
 -6.07211252E-03 -3.98739730E-02  1.00723019E-01  1.78810714E-02  1.24347814E-02
 -3.07463619E-01 -5.28910393E-02 -6.94604503E-02 -6.82668351E-02 -2.69258145E-01
  9.87519568E-03  1.65930444E-01 -1.56544496E-02 -2.91287446E-01  6.47591669E-03
 -1.08374720E-01  5.85819921E-02 -3.81890878E-03 -7.14400955E-03  6.25928462E-02
  1.32238501E-01  4.40287398E-01 -6.53547497E-02  1.51668601E-01  9.77994991E-02
  4.35759958E-01 -3.62360596E-02 -2.51633003E-01  6.52961887E-03  3.60469792E-01
  5.72087304E-02  1.49091783E-01 -5.54106040E-02  1.09082789E-01  5.68392346E-02
 -1.13073892E-02 -6.32396112E-02 -8.10178000E-02  3.42451859E-02  2.26480340E-02
  1.11125804E-01 -2.28490340E-02  3.30283620E-01 -1.20814757E-01  5.57636278E-01
 -3.83500319E-02 -1.79620121E-01 -2.96162781E-02 -4.24318353E-01 -2.69426513E-02
 -6.41425523E-02 -6.06481951E-02 -2.40299174E-01  9.10511891E-02  5.26046518E-02
  7.26635161E-02 -3.87884924E-02  4.84211401E-02  2.56077480E-01  8.32079991E-03
  3.42987694E-01  4.54497459E-04 -8.41939717E-02 -7.16590239E-03 -2.25647785E-01
 -2.55091968E-02 -2.62401001E-02  4.23627565E-02 -6.07690010E-02 -2.42098513E-02
  1.67949085E-02  2.96359302E-02  2.79173676E-02 -2.18218960E-02 -1.44859743E-02
  1.87595285E-02 -2.15570604E-02  1.96779901E-01 -7.88046369E-02  3.09788716E-01
 -2.28551762E-02 -8.51884841E-02 -2.21983481E-02 -2.64649792E-01 -9.36257667E-03
 -5.15109666E-02  1.00750681E-02 -8.11218190E-02  9.93281728E-03 -5.68474859E-03
  8.75192304E-02  4.32016050E-02 -1.61345073E-01 -3.24899466E-01  1.41895014E-01
 -4.66783469E-01 -2.62378975E-02  1.09553769E-01  5.02372836E-02  5.43791139E-01
  1.41552017E-02  1.09129883E-01 -2.26275181E-02  2.09121829E-01  7.64184727E-02
 -4.58292260E-02 -8.75632150E-02  1.38355430E-03  7.71116764E-02  4.94440540E-02
 -2.51878605E-01 -6.31644104E-03  1.94636137E-01 -2.45900737E-02  1.90584557E-01
  6.26792603E-04  5.14732615E-02  2.67015053E-04 -1.25565615E-01  1.20691402E-01
 -1.36208953E-02  2.99786705E-01  4.61340035E-01 -1.04623344E-01  5.35057370E-02
  9.68958580E-02  2.76031747E-01  1.29382299E-01 -2.01287214E-01 -1.85594877E-01
 -1.80091662E-01  4.91461761E-02 -6.34538137E-02 -6.49683713E-02 -1.82355037E-01
  1.87502866E-01 -6.50940654E-02 -2.12141132E-01 -3.40789011E-01 -5.55712253E-02
  6.00727266E-02  5.85277762E-02 -1.29574979E-01 -1.50111105E-01 -9.16983126E-02
 -3.21912632E-01  5.70474987E-02  1.70169782E-01  5.66424239E-02  2.06798191E-01
  3.01265774E-02  1.10724871E-01  2.60403962E-02  1.25105196E-01  2.07247269E-01
 -5.92825500E-03  3.22534494E-01  2.45548463E-01 -2.09670115E-02 -9.90538770E-02
 -1.85429852E-01 -1.94353150E-01  6.81659037E-02  1.07724732E-01 -8.60281975E-02
  1.30523264E-01  1.80399654E-02  7.19774446E-02 -2.61480129E-02  1.15799838E-03
 -2.40565062E-01 -1.99897275E-02  2.50689016E-01  4.58206941E-01  7.15273777E-03
 -7.64474790E-02  3.37747722E-03 -2.02278676E-01  2.34954642E-01  1.37822119E-01
  2.46300699E-01 -9.30639531E-02 -6.09655751E-02 -1.20967294E-01 -2.01057222E-01
 -5.31770762E-02 -1.42833982E-01 -4.45390547E-02 -2.51880907E-01 -1.09645881E-01
  5.15482716E-02 -1.13018454E-01  2.56177383E-01  3.53863297E-03  2.15949535E-01
  2.46156501E-01  1.58866760E-01  2.81839879E-01 -4.03919268E-02 -2.62377035E-01
 -1.54838015E-01  1.31978455E-01 -1.12986276E-01 -1.31500616E-01 -1.65886562E-01
 -9.07884156E-02 -5.98937773E-02  1.29679833E-01  3.87313597E-01 -6.35430951E-02
 -4.36807019E-02  1.08875915E-01  1.89124462E-01  2.44051030E-01  1.30469855E-01
 -1.89265475E-01  1.65021728E-01 -7.56245507E-02  3.91083688E-01  2.36678740E-01
  1.30119367E-01  2.41159494E-01  2.43129734E-01  8.67210552E-02 -1.96220810E-01
  8.63964411E-02 -2.57813164E-01 -2.54118451E-01 -1.96353390E-02  1.52958244E-01
  1.03309599E-01  1.84040557E-01  1.44514815E-02  9.40888443E-02 -1.69324957E-02
 -2.85896408E-01 -4.17659559E-03 -2.96055553E-01 -3.96458121E-02 -1.77987747E-01
  4.55704875E-02  7.82566023E-02 -1.74052376E-02  1.32298997E-01 -5.63290490E-02
  3.52552289E-02  9.19219776E-02 -2.68487530E-01  9.92302337E-02  4.89786650E-02
 -1.82155324E-02  1.16565713E-01  3.78095688E-02  3.22581937E-01 -4.51749941E-02
  7.57257031E-02 -5.30422742E-02  2.64987069E-01 -1.72680602E-01 -1.36459698E-01
  2.39694178E-01 -1.60592089E-01  7.44796730E-02  5.32914602E-03  1.92052024E-01
  1.35793323E-01 -1.38489187E-01  1.43771087E-01 -1.67983837E-01 -1.89571017E-01
  2.86201350E-01  1.63574166E-01  3.59962246E-01 -1.43503174E-01  2.80399898E-01
 -1.27982653E-01 -2.02015580E-01  5.39516889E-02 -1.46276852E-01  7.59936022E-02
 -9.84215051E-02 -1.34597531E-01 -1.86872669E-01 -1.13828167E-01 -5.27801247E-02
 -4.39364715E-02 -5.96127222E-02 -2.54029071E-01 -1.24139331E-01  3.18364328E-01
  1.44186742E-02  3.88981308E-01 -1.37162784E-01  1.86849193E-01 -8.63319581E-02
 -2.52621209E-01 -1.49839735E-01  6.05222628E-02  7.61543151E-02 -3.71071810E-02
  2.17046189E-01 -1.99584578E-02  3.02774046E-01 -1.78013678E-01  1.74767854E-01
  1.77867858E-01  2.83400745E-01  1.71298671E-01  1.59064638E-01  7.11209075E-02
  2.28773380E-01 -1.31280969E-01  9.54912558E-02 -3.78612914E-03  3.93735813E-02
 -4.59076178E-02  1.45972975E-01  1.23326987E-01  1.05621261E-01 -1.76590308E-02
  1.12347681E-02  3.63548159E-01  1.11246023E-01 -8.94657897E-03 -1.68228853E-01
  3.01337493E-01 -2.63497956E-01 -3.04364558E-02 -9.04660374E-02  3.31104913E-01
  1.16538322E-01 -1.44199496E-01  1.13601277E-01  2.22299291E-01  5.81190019E-03
 -7.58222724E-02 -7.43011419E-03  2.51216525E-01  5.47212546E-02  3.22153844E-01
 -9.14936500E-02  2.07122028E-01 -1.50214682E-01  2.76885579E-01  8.34432229E-03
  1.94276627E-01  4.33478762E-02  2.07458832E-01 -6.02979123E-02  1.23659779E-01
 -1.26143578E-02  4.78955907E-02 -1.29708277E-01  2.51871368E-02 -5.89918085E-02
  7.43308020E-03 -7.68543572E-02  1.60722548E-01  1.85771454E-01 -1.53906333E-01
 -1.30897510E-01 -2.07287362E-01  1.70955011E-01 -4.41262101E-02 -1.16960933E-01
  9.19698696E-02  1.30482586E-01 -6.72568397E-02 -9.98135524E-02 -7.04243277E-02
  2.25308597E-02  1.75599052E-02 -9.83803834E-02 -2.19417219E-01  2.09122367E-01
  2.09053460E-01 -5.23986878E-02  2.58445666E-01  2.05986440E-01 -1.60958383E-01
  3.67414029E-01 -4.60001365E-03 -2.00851297E-01  1.78619646E-01 -1.54231285E-01
  6.97532536E-02  3.81772083E-01 -1.05158529E-01  2.78265389E-01  7.75783806E-02
  3.30033147E-04  3.73010192E-01 -1.22721541E-01 -1.88887229E-01  7.13101556E-02
  4.59845087E-01  5.45667532E-02 -2.18981414E-01 -4.33360030E-02  2.11613397E-01
 -1.27308369E-02 -2.34031066E-01  3.76522333E-02  5.47168031E-02  3.89646608E-02
  1.43833172E-02  3.69391476E-02 -2.48006145E-01 -1.36695215E-01 -1.75027902E-01
  1.38355804E-01 -2.30462729E-01  2.26220516E-01 -1.67764327E-01 -6.26548470E-02
 -1.07796199E-02 -1.28006644E-02 -2.94087662E-01  1.23160334E-01 -1.95914424E-01
  6.11142036E-02  9.97162914E-02  1.31087206E-02  7.04602298E-02  8.99826265E-02
  5.87575539E-02 -1.00630718E-01 -1.31888630E-01  7.39567215E-02  8.84167081E-02
 -1.32699219E-01  2.10776655E-01  1.75395239E-01 -1.66058614E-01  7.72206862E-02
  1.80788597E-01 -1.30632025E-01  3.13593920E-01  2.02073172E-01  7.42438404E-02
  5.81313271E-03 -2.93445416E-02 -3.73899455E-02 -4.93811270E-02  1.53574000E-01
  4.58687472E-02 -1.11574684E-01  1.38286060E-01  3.67789873E-01 -1.92248872E-01
 -9.65650535E-02  3.27832029E-01 -4.43887730E-02  1.52010757E-01 -1.66945258E-01
  2.41139788E-01 -3.15607536E-01  7.91138929E-02 -2.39678087E-01  9.76520716E-02
 -6.61420701E-02  9.74199131E-02  1.45718951E-01 -1.13801067E-02 -8.96901249E-02
  1.17026076E-01 -2.50850107E-01 -1.28189886E-01  1.95567828E-01 -1.54317257E-01
 -2.78932670E-01  8.37433667E-02 -1.81803919E-01 -1.38411146E-01 -7.83049019E-02
  1.72280581E-01  4.34292863E-02  1.50146009E-01 -6.99418653E-02  1.71321311E-02
  2.80384358E-02  3.79414502E-01  4.88862205E-03  9.31633118E-02 -3.70560986E-02
 -1.42445873E-01  2.75349866E-02 -1.68334837E-01  1.71215788E-01 -3.47214025E-01
  1.84250299E-01 -3.16741915E-01 -1.21288668E-01 -2.60650674E-01  1.67806529E-01
  3.81942465E-02  2.84100232E-02 -9.79581322E-02 -9.19466879E-02  4.96119975E-02
  3.72750943E-01  1.47377440E-01 -2.62201875E-01 -1.47789904E-01 -3.35500030E-01
  4.47463626E-01  3.32831996E-01 -1.03391845E-01 -3.99207072E-01  1.14768478E-01
 -1.18126967E-01 -1.62117962E-02  1.62768360E-02 -1.22208345E-02  4.61019129E-02
  1.03363938E-02  9.84745097E-02  3.82782555E-02  1.87279265E-01 -6.70004922E-02
  1.33136818E-03  1.27484633E-01  1.00523543E-01 -6.00766266E-03  1.08259735E-01
  1.55434078E-02 -3.64554527E-02  1.02162681E-01 -7.23121465E-03 -3.76138472E-02
  3.22011512E-02 -6.60575244E-02 -6.86278796E-02 -3.31859646E-02  3.89683018E-02
 -1.77157310E-01  1.88131885E-01  7.37373216E-03 -1.23804507E-01  2.66424422E-01
  3.31618817E-01 -1.67201833E-02 -1.29878760E-01  1.69603517E-02  3.93676091E-02
 -3.53505849E-01 -2.15232483E-02  2.49378484E-02  5.83337829E-02  4.34613623E-02
 -3.23033629E-02  3.89261911E-01 -1.68362141E-01 -3.52060608E-02  1.82029245E-01
 -6.21340821E-03 -3.30586272E-01 -3.09531847E-01  3.22061910E-02 -3.50807907E-01
 -1.62850245E-02  7.60142572E-02  8.63147560E-02 -9.14923725E-03  1.25391292E-01
  6.17164241E-02 -1.94605148E-02 -5.73894254E-02 -1.73989960E-02  1.49756333E-02
  3.00352958E-01 -2.69272005E-02  2.93152742E-01 -4.68358050E-02 -1.50160382E-01
 -1.34100751E-01  1.17110346E-01  1.30413378E-01 -7.02616130E-03 -1.09794820E-01
  1.25152726E-01 -5.98405235E-02  3.61462774E-03  9.12647983E-02  6.83380912E-03
 -4.02320311E-02 -2.88738148E-01 -2.01651158E-01  4.66540139E-01  1.14682005E-01
 -2.18399086E-01 -4.52135092E-01 -1.11790393E-01 -6.57159174E-02 -1.58414076E-01
 -1.92657736E-01  4.15200050E-02  9.80449951E-02  2.21562627E-02  4.98887710E-02
  1.11408956E-01 -7.80294173E-02 -1.02328509E-01 -1.16890453E-01  2.59742055E-02
  3.61525441E-01  1.89451021E-02  6.53100325E-01 -7.89923278E-02  9.30184310E-02
 -1.77971970E-01  1.74876226E-01 -5.04248036E-02 -4.41751759E-02 -1.51509057E-01
 -1.15399511E-01  1.12380282E-02 -8.16624385E-03 -1.04883582E-02  2.25738995E-02
  5.62628027E-03  2.37720276E-01  3.43954906E-02 -3.00864381E-01 -3.31675514E-02
  1.29924600E-01  1.91593143E-01  3.41323268E-02  3.88940449E-02  3.79710961E-02
  1.04873908E-01 -1.44869203E-02  2.48354970E-01 -1.77881974E-02 -1.02972347E-02
  9.10146671E-03 -1.25937493E-02 -5.83238952E-03  2.05351570E-02  2.93293282E-03
  5.05190226E-02  1.81055107E-02 -6.79189075E-02 -1.90277185E-02 -9.62473408E-02
  1.05379152E-01  7.68642504E-02  1.86397650E-02  2.77596646E-02 -4.98359297E-02
  1.14317351E-02 -7.42895022E-02  1.71012954E-01  3.49382983E-02  1.57297290E-01
 -1.49845239E-02 -3.88563635E-01 -5.92893869E-02 -3.20362996E-01  1.11675236E-01
  4.53955674E-01 -2.79951946E-01  3.31776909E-01  1.17923326E-01 -2.95496226E-01
  1.87938933E-01 -1.72118445E-01  3.49019620E-04 -2.29327731E-01  1.32634389E-01
  2.98799406E-02 -1.13099511E-01 -1.18849745E-02  1.76483891E-01  7.89565564E-03
  1.82858920E-01 -2.50625392E-02 -2.07365013E-01 -5.77868819E-02 -4.14822860E-01
  5.98894887E-02  1.18371817E-01  2.82168201E-01  5.18364576E-01 -2.38701197E-01
  1.75625585E-02 -1.53075189E-01 -1.35132363E-01  1.34164757E-01  1.64945374E-01
 -2.44529099E-02  1.85439755E-01 -9.37166576E-02 -2.51886940E-01  5.41094221E-02
 -6.52938460E-02  1.07727224E-01 -2.09141493E-01 -4.20580642E-02 -3.31212260E-02
  1.58982919E-02  1.12547777E-01 -5.54834481E-02  6.05011924E-02 -9.99277278E-03
 -1.10449474E-01 -1.71893986E-01  8.28864339E-02 -7.79290330E-02 -7.84873562E-03
  1.34070802E-01 -9.77684446E-02  2.34038865E-02  1.50308434E-01 -1.70040812E-01
 -2.48911351E-01  5.11233769E-02  1.94872960E-02  2.31549333E-01  7.42409912E-01
 -3.82332092E-01 -2.14191349E-02 -8.03365751E-03  5.65384456E-02 -3.25534852E-02
 -2.27182274E-02 -2.30391347E-02  8.62920170E-02  8.61537988E-02  8.56964512E-02
  8.67107856E-02 -1.99127127E-03 -9.08042206E-03 -7.72743378E-03 -5.04650467E-02
  8.16184747E-02  6.21893085E-02  2.99239220E-02 -5.86561237E-03  5.94856561E-03
  1.58581307E-02  3.79701393E-02 -2.25663051E-02  1.73542374E-02  3.95585909E-03
 -2.60381146E-02  1.30293145E-03 -1.02736230E-02 -3.93018960E-02 -1.43081203E-02
 -2.79264978E-02 -3.89542569E-02  3.92869220E-02 -4.27832942E-02 -7.74972528E-02
  1.70320291E-02 -1.34323789E-01 -5.37639875E-02  8.49092869E-02 -2.37338544E-01
 -1.75314642E-03  5.41206752E-02 -1.01712490E-01  1.39726412E-01  1.51598973E-01
  2.21606449E-02 -2.27606609E-01 -6.74454963E-02  1.42138806E-01  3.27366256E-01
  7.83643348E-01  1.34097242E-01 -1.89988732E-02 -1.20475273E-02 -1.61000659E-01
 -4.74675523E-02  8.45072080E-02  5.75072633E-02 -1.68075554E-01 -1.64797243E-02
 -5.34929034E-02  2.89892910E-02  1.02007963E-01  1.30836540E-01  3.95293306E-02
  1.57692559E-01  1.37799769E-01 -1.14603379E-01  2.44004515E-02  1.51616419E-01
  1.61076396E-01 -7.98091531E-02  4.94023299E-01 -2.85506015E-02  3.77236727E-01
 -2.46867945E-03 -2.77566885E-01  1.06255308E-02 -2.23968329E-01  3.80022827E-02
 -3.21860463E-01  7.41009216E-02 -3.57128250E-01 -1.06008999E-02  1.10326505E-01
  1.61966490E-01  7.74653514E-02  5.97745142E-02  8.77176434E-02 -6.88468485E-02
 -9.21232301E-04  6.15639560E-01 -1.01376689E-01 -3.28367930E-01  8.76823173E-03
 -3.74276294E-01  2.04069353E-02  1.95867467E-01 -4.16302654E-02 -3.09381039E-01
 -6.76250510E-02  6.13380916E-02  2.06353912E-01 -1.21482471E-01  1.11517868E-01
  1.42307809E-02 -1.86367002E-01 -1.92823792E-01  1.40098911E-01  9.27969855E-02
 -1.73485594E-02  1.02816815E-01 -4.74560806E-02 -3.90610780E-02  5.11829181E-02
  6.29596721E-02  5.76678873E-02  3.92046244E-02 -4.57815661E-02 -1.08919105E-01
 -3.18132896E-02  6.53697788E-02 -4.29153818E-02 -9.34492363E-03  2.75259027E-02
 -6.18453597E-02  1.79460747E-01  9.32663374E-02 -2.56297202E-01 -2.98881548E-02