Atom number=23                                                          
SP        RPM6                                                        ZDO                 
Number of atoms                            I               23
Info1-9                                    I   N=           9
          80          79           0           0           0         111
           1           8        2302
Full Title                                 C   N=           2
Atom number=23          
Route                                      C   N=           3
#p int=acc2e=12 pm6 charge nosymm   
Charge                                     I                4
Multiplicity                               I                1
Number of electrons                        I               90
Number of alpha electrons                  I               45
Number of beta electrons                   I               45
Number of basis functions                  I               83
Number of independent functions            I               83
Number of point charges in /Mol/           I                0
Number of translation vectors              I                0
Atomic numbers                             I   N=          23
           6           8           7           6           6           8
           7           6           6           6           6           8
           7           6           6           6           7           6
           6           7           1           1           1
Nuclear charges                            R   N=          23
  4.00000000E+00  6.00000000E+00  5.00000000E+00  4.00000000E+00  4.00000000E+00
  6.00000000E+00  5.00000000E+00  4.00000000E+00  4.00000000E+00  4.00000000E+00
  4.00000000E+00  6.00000000E+00  5.00000000E+00  4.00000000E+00  4.00000000E+00
  4.00000000E+00  5.00000000E+00  4.00000000E+00  4.00000000E+00  5.00000000E+00
  1.00000000E+00  1.00000000E+00  1.00000000E+00
Current cartesian coordinates              R   N=          69
 -3.09159194E+00  3.30702072E-01  8.69274017E+00 -3.29568236E+00  2.56246862E+00
  9.18784842E+00 -2.06925011E+00 -1.32280829E+00  1.02328670E+01 -1.08092334E+00
 -5.87704825E-01  1.26025835E+01  1.58736994E+00 -1.61382611E+00  1.28350198E+01
  1.94074873E+00 -3.82102622E+00  1.26989596E+01  3.42040429E+00  3.77945225E-03
  1.32715466E+01  6.03011606E+00 -8.10692507E-01  1.34189452E+01 -2.66640356E+00
 -1.72531995E+00  1.47341946E+01 -1.37383089E+00 -1.21887335E+00  1.72399714E+01
  7.39071887E+00  4.87549340E-01  1.55505563E+01  7.67984697E+00  2.79301521E+00
  1.55486666E+01  8.24676481E+00 -9.95885668E-01  1.73646934E+01  9.57524227E+00
  3.77945225E-02  1.95133120E+01  7.31512983E+00 -1.94641791E-01  1.08621458E+01
  9.91539298E+00 -1.21509390E+00  1.05465615E+01  1.10756848E+01 -1.30202130E+00
  8.22597782E+00  1.15424472E+01 -2.26200217E+00  1.21849541E+01  1.33395767E+01
 -2.31869395E+00  8.46975249E+00  1.36797274E+01 -2.87805289E+00  1.08678149E+01
 -3.66469976E+00 -4.29405718E-01  6.90884117E+00 -4.53983101E+00 -9.64619393E-01
  1.47234045E+01  8.49249625E+00  1.12190079E+00  2.08327386E+01
Number of symbols in /Mol/                 I                0
Int Atom Types                             I   N=          23
           0           0           0           0           0           0
           0           0           0           0           0           0
           0           0           0           0           0           0
           0           0           0           0           0
Force Field                                I                0
Atom Types                                 C   N=          23
                                                            
                                                            
                                                            
                                                            
                                    
MM charges                                 R   N=          23
  0.00000000E+00  0.00000000E+00  0.00000000E+00  0.00000000E+00  0.00000000E+00
  0.00000000E+00  0.00000000E+00  0.00000000E+00  0.00000000E+00  0.00000000E+00
  0.00000000E+00  0.00000000E+00  0.00000000E+00  0.00000000E+00  0.00000000E+00
  0.00000000E+00  0.00000000E+00  0.00000000E+00  0.00000000E+00  0.00000000E+00
  0.00000000E+00  0.00000000E+00  0.00000000E+00
Integer atomic weights                     I   N=          23
          12          16          14          12          12          16
          14          12          12          12          12          16
          14          12          12          12          14          12
          12          14           1           1           1
Real atomic weights                        R   N=          23
  1.20000000E+01  1.59949146E+01  1.40030740E+01  1.20000000E+01  1.20000000E+01
  1.59949146E+01  1.40030740E+01  1.20000000E+01  1.20000000E+01  1.20000000E+01
  1.20000000E+01  1.59949146E+01  1.40030740E+01  1.20000000E+01  1.20000000E+01
  1.20000000E+01  1.40030740E+01  1.20000000E+01  1.20000000E+01  1.40030740E+01
  1.00782504E+00  1.00782504E+00  1.00782504E+00
Atom fragment info                         I   N=          23
           0           0           0           0           0           0
           0           0           0           0           0           0
           0           0           0           0           0           0
           0           0           0           0           0
Atom residue num                           I   N=          23
           0           0           0           0           0           0
           0           0           0           0           0           0
           0           0           0           0           0           0
           0           0           0           0           0
Nuclear spins                              I   N=          23
           0           0           2           0           0           0
           2           0           0           0           0           0
           2           0           0           0           2           0
           0           2           1           1           1
Nuclear ZEff                               R   N=          23
 -3.90000000E+00 -6.00000000E+00 -4.90000000E+00 -3.90000000E+00 -3.90000000E+00
 -6.00000000E+00 -4.90000000E+00 -3.90000000E+00 -3.90000000E+00 -3.90000000E+00
 -3.90000000E+00 -6.00000000E+00 -4.90000000E+00 -3.90000000E+00 -3.90000000E+00
 -3.90000000E+00 -4.90000000E+00 -3.90000000E+00 -3.90000000E+00 -4.90000000E+00
 -1.00000000E+00 -1.00000000E+00 -1.00000000E+00
Nuclear ZNuc                               R   N=          23
  6.00000000E+00  8.00000000E+00  7.00000000E+00  6.00000000E+00  6.00000000E+00
  8.00000000E+00  7.00000000E+00  6.00000000E+00  6.00000000E+00  6.00000000E+00
  6.00000000E+00  8.00000000E+00  7.00000000E+00  6.00000000E+00  6.00000000E+00
  6.00000000E+00  7.00000000E+00  6.00000000E+00  6.00000000E+00  7.00000000E+00
  1.00000000E+00  1.00000000E+00  1.00000000E+00
Nuclear QMom                               R   N=          23
  0.00000000E+00  0.00000000E+00  2.04400000E+00  0.00000000E+00  0.00000000E+00
  0.00000000E+00  2.04400000E+00  0.00000000E+00  0.00000000E+00  0.00000000E+00
  0.00000000E+00  0.00000000E+00  2.04400000E+00  0.00000000E+00  0.00000000E+00
  0.00000000E+00  2.04400000E+00  0.00000000E+00  0.00000000E+00  2.04400000E+00
  0.00000000E+00  0.00000000E+00  0.00000000E+00
Nuclear GFac                               R   N=          23
  0.00000000E+00  0.00000000E+00  4.03761000E-01  0.00000000E+00  0.00000000E+00
  0.00000000E+00  4.03761000E-01  0.00000000E+00  0.00000000E+00  0.00000000E+00
  0.00000000E+00  0.00000000E+00  4.03761000E-01  0.00000000E+00  0.00000000E+00
  0.00000000E+00  4.03761000E-01  0.00000000E+00  0.00000000E+00  4.03761000E-01
  2.79284600E+00  2.79284600E+00  2.79284600E+00
MicOpt                                     I   N=          23
          -1          -1          -1          -1          -1          -1
          -1          -1          -1          -1          -1          -1
          -1          -1          -1          -1          -1          -1
          -1          -1          -1          -1          -1
Number of residues                         I                0
Number of secondary structures             I                0
Number of contracted shells                I               23
Number of primitive shells                 I              138
Pure/Cartesian d shells                    I                0
Pure/Cartesian f shells                    I                0
Highest angular momentum                   I                1
Largest degree of contraction              I                6
Shell types                                I   N=          23
          -1          -1          -1          -1          -1          -1
          -1          -1          -1          -1          -1          -1
          -1          -1          -1          -1          -1          -1
          -1          -1           0           0           0
Number of primitives per shell             I   N=          23
           6           6           6           6           6           6
           6           6           6           6           6           6
           6           6           6           6           6           6
           6           6           6           6           6
Shell to atom map                          I   N=          23
           1           2           3           4           5           6
           7           8           9          10          11          12
          13          14          15          16          17          18
          19          20          21          22          23
Primitive exponents                        R   N=         138
  1.14476344E+01  3.29633588E+00  1.29653143E+00  5.92558930E-01  2.94896438E-01
  1.51447622E-01  8.02643074E+01  2.31120341E+01  9.09054165E+00  4.15468650E+00
  2.06764625E+00  1.06186467E+00  1.54719623E+01  4.45513742E+00  1.75231709E+00
  8.00868468E-01  3.98565014E-01  2.04687870E-01  1.14476344E+01  3.29633588E+00
  1.29653143E+00  5.92558930E-01  2.94896438E-01  1.51447622E-01  1.14476344E+01
  3.29633588E+00  1.29653143E+00  5.92558930E-01  2.94896438E-01  1.51447622E-01
  8.02643074E+01  2.31120341E+01  9.09054165E+00  4.15468650E+00  2.06764625E+00
  1.06186467E+00  1.54719623E+01  4.45513742E+00  1.75231709E+00  8.00868468E-01
  3.98565014E-01  2.04687870E-01  1.14476344E+01  3.29633588E+00  1.29653143E+00
  5.92558930E-01  2.94896438E-01  1.51447622E-01  1.14476344E+01  3.29633588E+00
  1.29653143E+00  5.92558930E-01  2.94896438E-01  1.51447622E-01  1.14476344E+01
  3.29633588E+00  1.29653143E+00  5.92558930E-01  2.94896438E-01  1.51447622E-01
  1.14476344E+01  3.29633588E+00  1.29653143E+00  5.92558930E-01  2.94896438E-01
  1.51447622E-01  8.02643074E+01  2.31120341E+01  9.09054165E+00  4.15468650E+00
  2.06764625E+00  1.06186467E+00  1.54719623E+01  4.45513742E+00  1.75231709E+00
  8.00868468E-01  3.98565014E-01  2.04687870E-01  1.14476344E+01  3.29633588E+00
  1.29653143E+00  5.92558930E-01  2.94896438E-01  1.51447622E-01  1.14476344E+01
  3.29633588E+00  1.29653143E+00  5.92558930E-01  2.94896438E-01  1.51447622E-01
  1.14476344E+01  3.29633588E+00  1.29653143E+00  5.92558930E-01  2.94896438E-01
  1.51447622E-01  1.54719623E+01  4.45513742E+00  1.75231709E+00  8.00868468E-01
  3.98565014E-01  2.04687870E-01  1.14476344E+01  3.29633588E+00  1.29653143E+00
  5.92558930E-01  2.94896438E-01  1.51447622E-01  1.14476344E+01  3.29633588E+00
  1.29653143E+00  5.92558930E-01  2.94896438E-01  1.51447622E-01  1.54719623E+01
  4.45513742E+00  1.75231709E+00  8.00868468E-01  3.98565014E-01  2.04687870E-01
  4.39461478E+00  1.26542531E+00  4.97723458E-01  2.27476537E-01  1.13207340E-01
  5.81389949E-02  4.39461478E+00  1.26542531E+00  4.97723458E-01  2.27476537E-01
  1.13207340E-01  5.81389949E-02  4.39461478E+00  1.26542531E+00  4.97723458E-01
  2.27476537E-01  1.13207340E-01  5.81389949E-02
Contraction coefficients                   R   N=         138
 -9.73739553E-03 -7.26587678E-02 -1.71615520E-01  1.28977624E-01  7.28861451E-01
  3.01331742E-01 -9.73739553E-03 -7.26587678E-02 -1.71615520E-01  1.28977624E-01
  7.28861451E-01  3.01331742E-01 -9.73739553E-03 -7.26587678E-02 -1.71615520E-01
  1.28977624E-01  7.28861451E-01  3.01331742E-01 -9.73739553E-03 -7.26587678E-02
 -1.71615520E-01  1.28977624E-01  7.28861451E-01  3.01331742E-01 -9.73739553E-03
 -7.26587678E-02 -1.71615520E-01  1.28977624E-01  7.28861451E-01  3.01331742E-01
 -9.73739553E-03 -7.26587678E-02 -1.71615520E-01  1.28977624E-01  7.28861451E-01
  3.01331742E-01 -9.73739553E-03 -7.26587678E-02 -1.71615520E-01  1.28977624E-01
  7.28861451E-01  3.01331742E-01 -9.73739553E-03 -7.26587678E-02 -1.71615520E-01
  1.28977624E-01  7.28861451E-01  3.01331742E-01 -9.73739553E-03 -7.26587678E-02
 -1.71615520E-01  1.28977624E-01  7.28861451E-01  3.01331742E-01 -9.73739553E-03
 -7.26587678E-02 -1.71615520E-01  1.28977624E-01  7.28861451E-01  3.01331742E-01
 -9.73739553E-03 -7.26587678E-02 -1.71615520E-01  1.28977624E-01  7.28861451E-01
  3.01331742E-01 -9.73739553E-03 -7.26587678E-02 -1.71615520E-01  1.28977624E-01
  7.28861451E-01  3.01331742E-01 -9.73739553E-03 -7.26587678E-02 -1.71615520E-01
  1.28977624E-01  7.28861451E-01  3.01331742E-01 -9.73739553E-03 -7.26587678E-02
 -1.71615520E-01  1.28977624E-01  7.28861451E-01  3.01331742E-01 -9.73739553E-03
 -7.26587678E-02 -1.71615520E-01  1.28977624E-01  7.28861451E-01  3.01331742E-01
 -9.73739553E-03 -7.26587678E-02 -1.71615520E-01  1.28977624E-01  7.28861451E-01
  3.01331742E-01 -9.73739553E-03 -7.26587678E-02 -1.71615520E-01  1.28977624E-01
  7.28861451E-01  3.01331742E-01 -9.73739553E-03 -7.26587678E-02 -1.71615520E-01
  1.28977624E-01  7.28861451E-01  3.01331742E-01 -9.73739553E-03 -7.26587678E-02
 -1.71615520E-01  1.28977624E-01  7.28861451E-01  3.01331742E-01 -9.73739553E-03
 -7.26587678E-02 -1.71615520E-01  1.28977624E-01  7.28861451E-01  3.01331742E-01
 -9.73739553E-03 -7.26587678E-02 -1.71615520E-01  1.28977624E-01  7.28861451E-01
  3.01331742E-01 -9.73739553E-03 -7.26587678E-02 -1.71615520E-01  1.28977624E-01
  7.28861451E-01  3.01331742E-01 -9.73739553E-03 -7.26587678E-02 -1.71615520E-01
  1.28977624E-01  7.28861451E-01  3.01331742E-01
P(S=P) Contraction coefficients            R   N=         138
 -8.10494336E-03 -1.71547892E-02  7.36978576E-02  3.96514999E-01  4.97808488E-01
  1.17482582E-01 -8.10494336E-03 -1.71547892E-02  7.36978576E-02  3.96514999E-01
  4.97808488E-01  1.17482582E-01 -8.10494336E-03 -1.71547892E-02  7.36978576E-02
  3.96514999E-01  4.97808488E-01  1.17482582E-01 -8.10494336E-03 -1.71547892E-02
  7.36978576E-02  3.96514999E-01  4.97808488E-01  1.17482582E-01 -8.10494336E-03
 -1.71547892E-02  7.36978576E-02  3.96514999E-01  4.97808488E-01  1.17482582E-01
 -8.10494336E-03 -1.71547892E-02  7.36978576E-02  3.96514999E-01  4.97808488E-01
  1.17482582E-01 -8.10494336E-03 -1.71547892E-02  7.36978576E-02  3.96514999E-01
  4.97808488E-01  1.17482582E-01 -8.10494336E-03 -1.71547892E-02  7.36978576E-02
  3.96514999E-01  4.97808488E-01  1.17482582E-01 -8.10494336E-03 -1.71547892E-02
  7.36978576E-02  3.96514999E-01  4.97808488E-01  1.17482582E-01 -8.10494336E-03
 -1.71547892E-02  7.36978576E-02  3.96514999E-01  4.97808488E-01  1.17482582E-01
 -8.10494336E-03 -1.71547892E-02  7.36978576E-02  3.96514999E-01  4.97808488E-01
  1.17482582E-01 -8.10494336E-03 -1.71547892E-02  7.36978576E-02  3.96514999E-01
  4.97808488E-01  1.17482582E-01 -8.10494336E-03 -1.71547892E-02  7.36978576E-02
  3.96514999E-01  4.97808488E-01  1.17482582E-01 -8.10494336E-03 -1.71547892E-02
  7.36978576E-02  3.96514999E-01  4.97808488E-01  1.17482582E-01 -8.10494336E-03
 -1.71547892E-02  7.36978576E-02  3.96514999E-01  4.97808488E-01  1.17482582E-01
 -8.10494336E-03 -1.71547892E-02  7.36978576E-02  3.96514999E-01  4.97808488E-01
  1.17482582E-01 -8.10494336E-03 -1.71547892E-02  7.36978576E-02  3.96514999E-01
  4.97808488E-01  1.17482582E-01 -8.10494336E-03 -1.71547892E-02  7.36978576E-02
  3.96514999E-01  4.97808488E-01  1.17482582E-01 -8.10494336E-03 -1.71547892E-02
  7.36978576E-02  3.96514999E-01  4.97808488E-01  1.17482582E-01 -8.10494336E-03
 -1.71547892E-02  7.36978576E-02  3.96514999E-01  4.97808488E-01  1.17482582E-01
  0.00000000E+00  0.00000000E+00  0.00000000E+00  0.00000000E+00  0.00000000E+00
  0.00000000E+00  0.00000000E+00  0.00000000E+00  0.00000000E+00  0.00000000E+00
  0.00000000E+00  0.00000000E+00  0.00000000E+00  0.00000000E+00  0.00000000E+00
  0.00000000E+00  0.00000000E+00  0.00000000E+00
Coordinates of each shell                  R   N=          69
 -3.09159194E+00  3.30702072E-01  8.69274017E+00 -3.29568236E+00  2.56246862E+00
  9.18784842E+00 -2.06925011E+00 -1.32280829E+00  1.02328670E+01 -1.08092334E+00
 -5.87704825E-01  1.26025835E+01  1.58736994E+00 -1.61382611E+00  1.28350198E+01
  1.94074873E+00 -3.82102622E+00  1.26989596E+01  3.42040429E+00  3.77945225E-03
  1.32715466E+01  6.03011606E+00 -8.10692507E-01  1.34189452E+01 -2.66640356E+00
 -1.72531995E+00  1.47341946E+01 -1.37383089E+00 -1.21887335E+00  1.72399714E+01
  7.39071887E+00  4.87549340E-01  1.55505563E+01  7.67984697E+00  2.79301521E+00
  1.55486666E+01  8.24676481E+00 -9.95885668E-01  1.73646934E+01  9.57524227E+00
  3.77945225E-02  1.95133120E+01  7.31512983E+00 -1.94641791E-01  1.08621458E+01
  9.91539298E+00 -1.21509390E+00  1.05465615E+01  1.10756848E+01 -1.30202130E+00
  8.22597782E+00  1.15424472E+01 -2.26200217E+00  1.21849541E+01  1.33395767E+01
 -2.31869395E+00  8.46975249E+00  1.36797274E+01 -2.87805289E+00  1.08678149E+01
 -3.66469976E+00 -4.29405718E-01  6.90884117E+00 -4.53983101E+00 -9.64619393E-01
  1.47234045E+01  8.49249625E+00  1.12190079E+00  2.08327386E+01
Num ILSW                                   I              100
ILSW                                       I   N=         100
           0           0           0           0           2           0
           0           0           0           0           0          -1
           5           0           0           0           0           0
           0           0           0           0           0           0
           1           1           0           0           0           0
           0           0      100000           0          -1           0
           0           0           0           0           0           0
           0           0           0          40           0           0
           0 -2000000000           1           0           0           0
           0           0           4          52           0           0
           0           1           0           0           0           0
           0           0           0          23           0           1
           0           0           0           0           0           0
           0           0           0           0           0           0
           0           0           0           0           0           0
           0           0           0           0           0           0
           0           0           0           0
Num RLSW                                   I               52
RLSW                                       R   N=          52
  1.00000000E+00  1.00000000E+00  1.00000000E+00  1.00000000E+00  1.00000000E+00
  0.00000000E+00  0.00000000E+00  1.00000000E+00  0.00000000E+00  0.00000000E+00
  0.00000000E+00  0.00000000E+00  1.00000000E+00  0.00000000E+00  0.00000000E+00
  0.00000000E+00  0.00000000E+00  1.00000000E+00  0.00000000E+00  0.00000000E+00
  0.00000000E+00  0.00000000E+00  1.00000000E+00  0.00000000E+00  0.00000000E+00
  0.00000000E+00  0.00000000E+00  1.00000000E+00  0.00000000E+00  0.00000000E+00
  0.00000000E+00  0.00000000E+00  1.00000000E+00  0.00000000E+00  0.00000000E+00
  0.00000000E+00  0.00000000E+00  0.00000000E+00  1.00000000E+00  1.00000000E+00
  0.00000000E+00  1.00000000E+00  0.00000000E+00  0.00000000E+00  0.00000000E+00
  0.00000000E+00  0.00000000E+00  0.00000000E+00  0.00000000E+00  0.00000000E+00
  0.00000000E+00  0.00000000E+00
MxBond                                     I                3
NBond                                      I   N=          23
           3           1           2           3           3           1
           2           3           3           1           3           1
           2           2           2           3           2           2
           2           2           1           1           1
IBond                                      I   N=          69
           2           3          21           1           0           0
           1           4           0           3           5           9
           4           6           7           5           0           0
           5           8           0           7          11          15
           4          10          22           9           0           0
           8          12          13          11           0           0
          11          14           0          13          23           0
           8          16           0          15          17          18
          16          19           0          16          20           0
          17          20           0          18          19           0
           1           0           0           9           0           0
          14           0           0
RBond                                      R   N=          69
  2.00000000E+00  1.50000000E+00  1.00000000E+00  2.00000000E+00  0.00000000E+00
  0.00000000E+00  1.50000000E+00  1.00000000E+00  0.00000000E+00  1.00000000E+00
  1.00000000E+00  1.00000000E+00  1.00000000E+00  2.00000000E+00  1.50000000E+00
  2.00000000E+00  0.00000000E+00  0.00000000E+00  1.50000000E+00  1.00000000E+00
  0.00000000E+00  1.00000000E+00  1.00000000E+00  1.00000000E+00  1.00000000E+00
  1.00000000E+00  1.00000000E+00  1.00000000E+00  0.00000000E+00  0.00000000E+00
  1.00000000E+00  2.00000000E+00  1.50000000E+00  2.00000000E+00  0.00000000E+00
  0.00000000E+00  1.50000000E+00  1.00000000E+00  0.00000000E+00  1.00000000E+00
  1.00000000E+00  0.00000000E+00  1.00000000E+00  1.00000000E+00  0.00000000E+00
  1.00000000E+00  1.00000000E+00  2.00000000E+00  1.00000000E+00  1.50000000E+00
  0.00000000E+00  2.00000000E+00  1.50000000E+00  0.00000000E+00  1.50000000E+00
  1.50000000E+00  0.00000000E+00  1.50000000E+00  1.50000000E+00  0.00000000E+00
  1.00000000E+00  0.00000000E+00  0.00000000E+00  1.00000000E+00  0.00000000E+00
  0.00000000E+00  1.00000000E+00  0.00000000E+00  0.00000000E+00
Virial Ratio                               R      1.008564656824270E+00
SCF Energy                                 R      1.590409335657114E+00
Total Energy                               R      1.590409335657114E+00
RMS Density                                R      9.858607260848281E-09
Job Status                                 I                1
Nuclear derivative order                   I                0
External E-field                           R   N=          35
  0.00000000E+00  0.00000000E+00  0.00000000E+00  0.00000000E+00  0.00000000E+00
  0.00000000E+00  0.00000000E+00  0.00000000E+00  0.00000000E+00  0.00000000E+00
  0.00000000E+00  0.00000000E+00  0.00000000E+00  0.00000000E+00  0.00000000E+00
  0.00000000E+00  0.00000000E+00  0.00000000E+00  0.00000000E+00  0.00000000E+00
  0.00000000E+00  0.00000000E+00  0.00000000E+00  0.00000000E+00  0.00000000E+00
  0.00000000E+00  0.00000000E+00  0.00000000E+00  0.00000000E+00  0.00000000E+00
  0.00000000E+00  0.00000000E+00  0.00000000E+00  0.00000000E+00  0.00000000E+00
IOpCl                                      I                0
IROHF                                      I                0
Alpha Orbital Energies                     R   N=          83
 -2.01472295E+00 -1.94228848E+00 -1.91248186E+00 -1.86812489E+00 -1.83818463E+00
 -1.79548204E+00 -1.76871722E+00 -1.76797270E+00 -1.71616716E+00 -1.68171220E+00
 -1.64325590E+00 -1.60619318E+00 -1.53414298E+00 -1.51725351E+00 -1.48190198E+00
 -1.43628324E+00 -1.39826393E+00 -1.37892177E+00 -1.36646511E+00 -1.32759921E+00
 -1.30873340E+00 -1.29291124E+00 -1.27679276E+00 -1.26443390E+00 -1.25363740E+00
 -1.24576808E+00 -1.23895879E+00 -1.23085870E+00 -1.21357907E+00 -1.19885017E+00
 -1.18763664E+00 -1.15415812E+00 -1.13368007E+00 -1.11747147E+00 -1.08754001E+00
 -1.08314141E+00 -1.07198579E+00 -1.06190463E+00 -1.05423178E+00 -1.04586873E+00
 -1.03940418E+00 -1.03728692E+00 -1.02998498E+00 -1.02280379E+00 -9.87734722E-01
 -8.79062952E-01 -7.76810147E-01 -7.67510631E-01 -7.61837065E-01 -7.57908410E-01
 -7.41179067E-01 -7.14649635E-01 -7.08505356E-01 -6.97042086E-01 -6.87242463E-01
 -6.59106055E-01 -6.54435528E-01 -6.39285870E-01 -6.28233563E-01 -6.18839898E-01
 -6.10107638E-01 -6.07784290E-01 -6.05506734E-01 -5.95391680E-01 -5.92879287E-01
 -5.91790973E-01 -5.78800404E-01 -5.64712724E-01 -5.61625153E-01 -5.49399262E-01
 -5.47470409E-01 -5.45407800E-01 -5.45152877E-01 -5.37333055E-01 -5.09371950E-01
 -5.05684509E-01 -4.99834193E-01 -4.96826375E-01 -4.89015007E-01 -4.80999833E-01
 -4.72676328E-01 -4.66964423E-01 -4.31398751E-01
Alpha MO coefficients                      R   N=        6889
  4.66623723E-05 -1.75461829E-05  9.96336550E-06  9.57832074E-07  4.68469379E-05
  8.60259537E-06 -2.80229018E-05  1.64353323E-05 -4.90428925E-05 -1.08813799E-04
  3.43357284E-06 -6.17524265E-05 -4.81978700E-04 -5.75290106E-04  1.52491165E-04
 -5.98442143E-05 -3.59740112E-03 -1.96973146E-03 -9.35294855E-05 -1.88008251E-04
 -1.98673103E-03 -2.73388835E-04 -1.65102460E-03 -1.33543450E-04 -7.26068006E-03
 -2.02474410E-03  1.99319868E-03  4.86411858E-04 -3.71011650E-03  6.29757511E-03
 -2.09116034E-03 -1.79217825E-03 -7.81052830E-05 -1.37464270E-04 -4.05215004E-06
  3.24224569E-05 -6.09400793E-05 -3.72246816E-05  4.63176075E-06  6.15416615E-05
 -2.48491828E-03  1.38948181E-03 -6.74376549E-04 -9.30334035E-04 -1.61568380E-03
  4.28886724E-04  1.16191039E-03  1.22645894E-05 -1.78420307E-03  1.37723735E-04
 -5.70307181E-04  4.38199055E-04 -5.00004739E-04  1.95896249E-04  4.69428586E-05
  3.55315404E-04  2.11941832E-02  3.63311346E-02 -1.40668229E-02 -7.54597005E-03
  2.94019665E-01  1.79982946E-01 -6.89582847E-02 -5.95333370E-02  4.21973401E-01
  1.25294198E-01 -8.85051322E-02  1.89759615E-01  3.13133703E-01  5.76950003E-02
  1.61573599E-02 -2.02177914E-01  4.02306121E-01 -1.57176537E-01  3.45467078E-02
  1.83625693E-01  4.54318054E-01 -1.94019333E-01  1.00069139E-01 -1.22563754E-01
  1.99043897E-05  6.87607686E-06 -1.46621756E-04  4.77929625E-01  2.82061857E-02
  2.06348417E-01  1.45097132E-01  6.48992487E-01  3.99206520E-02 -2.83832083E-01
 -3.28838743E-02  3.39322079E-01 -3.56860826E-02  1.64337036E-01 -1.25374874E-02
  1.52213486E-01 -4.19350891E-02 -5.57791867E-03 -8.56037719E-02  6.24901973E-02
 -2.12857710E-02 -5.07914693E-03 -1.12166578E-02  3.80625086E-02 -9.90565393E-03
  2.71469621E-02 -7.39642283E-04  2.22387043E-02 -1.15174463E-02 -1.08516050E-02
 -5.07966297E-03  2.96440836E-03 -4.85231406E-03 -7.10352214E-04 -1.13231591E-03
  5.21121546E-02  4.67152209E-03  1.68992993E-02 -2.89962069E-02  1.01940638E-02
 -3.16339569E-03  4.32064035E-04 -1.00657157E-02 -1.53908710E-03 -5.65344029E-04
 -4.70637506E-04 -2.96481616E-04 -1.31372388E-03  6.06228316E-05  8.47627913E-04
  2.23986026E-05 -1.19953340E-03  2.32542062E-05 -5.39345845E-04  3.06503350E-04
 -3.75541550E-04  1.50330940E-04 -1.29325014E-07  2.60728916E-04  3.43429840E-04
 -8.56253486E-04 -1.60098054E-04  1.82337107E-04 -1.00008501E-04  1.27584417E-04
 -1.08787814E-04 -1.00720535E-04  1.92122047E-04  1.22832044E-04 -7.92555933E-05
  5.14822843E-05  8.82284474E-05  1.25381593E-04 -5.56841710E-05 -1.03824215E-04
  2.82882997E-04 -7.88733895E-05  1.32493180E-05  1.19462553E-04  3.25317705E-04
 -1.07262139E-04  6.01906379E-05 -9.36841748E-05  1.14573032E-01  4.52815689E-02
 -1.21090497E-04 -4.84010955E-02  1.24397210E-02 -5.11495058E-02  4.84224174E-05
 -1.14457189E-01 -2.03687118E-03  3.81521197E-02  1.01953310E-02  6.37920448E-02
  3.56199656E-02 -6.82441490E-03  4.56368677E-02  1.63751507E-01  8.23147124E-02
 -6.70851451E-02  8.41706664E-03  5.33997526E-01  1.00200277E-01 -1.94832757E-01
  4.66557126E-03  5.60555167E-01 -3.30887125E-02  3.10258256E-01  2.39608865E-02
  3.47172260E-01 -5.97629054E-02 -1.67814985E-01 -2.86186663E-02  1.17645319E-01
 -9.22316083E-02  1.47183464E-03 -1.17438259E-02  7.53887622E-02  3.97474293E-02
  1.11303108E-02 -2.19100018E-02  3.26507911E-02  9.77471917E-04 -2.27921662E-03
 -2.61591315E-02  2.16588228E-02 -1.74941474E-02 -6.88547133E-03 -1.37117356E-02
  2.45133698E-03 -4.12616399E-03 -5.27040242E-03 -2.72564237E-03  2.35249609E-03
 -4.29221426E-03  4.18475210E-04 -4.28639286E-03 -1.73951476E-03  4.32292172E-05
  2.26514581E-04  5.00021185E-04  2.55553453E-02 -2.00348467E-02 -5.04363094E-03
  1.74381737E-02  2.85856502E-03 -1.98119545E-03 -7.55088720E-04  1.77528543E-03
  2.17102239E-03  1.54564205E-03 -1.07297452E-03  8.47033012E-04  2.96309332E-03
  1.19540405E-04  7.37967600E-05 -1.71793859E-03  3.89960960E-03 -1.01328509E-03
  4.98955520E-05  1.89297435E-03  4.87909057E-03 -1.71511688E-03  8.90122135E-04
 -1.39371787E-03 -1.35414529E-02  3.61494626E-02 -4.28839269E-04  1.18770332E-03
 -4.65324394E-03  1.47574162E-02 -3.85421602E-03  2.53639073E-02 -4.37326390E-04
 -5.12606384E-03 -3.09819897E-03 -2.69419999E-02 -3.16523220E-03 -3.86050191E-03
 -7.74488707E-03 -2.72015166E-02  1.06249506E-03  8.44900085E-03  3.65105324E-03
 -1.63978630E-02  2.15516390E-02  2.48424530E-02  6.74669502E-03 -3.96572842E-02
  8.67705068E-03 -1.44129178E-02  4.11154227E-04  7.29159813E-02  4.54303207E-02
 -4.45577190E-03  1.29267295E-02  1.63257984E-01  4.33312220E-02  6.82082261E-02
  7.05271893E-02 -1.73052094E-02 -3.29749491E-03 -3.55477147E-03  4.56764997E-03
 -6.07308049E-03  1.41127303E-03  2.91323459E-04  4.33383403E-03  5.40583437E-01