 Entering Gaussian System, Link 0=g16
 Input=4znn_01_gebf_pm6_14.gjf
 Output=4znn_01_gebf_pm6_14.log
 Initial command:
 /work/01114/jfonner/frontera/gaussian/16rC.01/g16/l1.exe "/scratch1/08249/sa748948/lsqc/36120880/Gau-193665.inp" -scrdir="/scratch1/08249/sa748948/lsqc/36120880/"
 Entering Link 1 = /work/01114/jfonner/frontera/gaussian/16rC.01/g16/l1.exe PID=    193667.
  
 Copyright (c) 1988-2019, Gaussian, Inc.  All Rights Reserved.
  
 This is part of the Gaussian(R) 16 program.  It is based on
 the Gaussian(R) 09 system (copyright 2009, Gaussian, Inc.),
 the Gaussian(R) 03 system (copyright 2003, Gaussian, Inc.),
 the Gaussian(R) 98 system (copyright 1998, Gaussian, Inc.),
 the Gaussian(R) 94 system (copyright 1995, Gaussian, Inc.),
 the Gaussian 92(TM) system (copyright 1992, Gaussian, Inc.),
 the Gaussian 90(TM) system (copyright 1990, Gaussian, Inc.),
 the Gaussian 88(TM) system (copyright 1988, Gaussian, Inc.),
 the Gaussian 86(TM) system (copyright 1986, Carnegie Mellon
 University), and the Gaussian 82(TM) system (copyright 1983,
 Carnegie Mellon University). Gaussian is a federally registered
 trademark of Gaussian, Inc.
  
 This software contains proprietary and confidential information,
 including trade secrets, belonging to Gaussian, Inc.
  
 This software is provided under written license and may be
 used, copied, transmitted, or stored only in accord with that
 written license.
  
 The following legend is applicable only to US Government
 contracts under FAR:
  
                    RESTRICTED RIGHTS LEGEND
  
 Use, reproduction and disclosure by the US Government is
 subject to restrictions as set forth in subparagraphs (a)
 and (c) of the Commercial Computer Software - Restricted
 Rights clause in FAR 52.227-19.
  
 Gaussian, Inc.
 340 Quinnipiac St., Bldg. 40, Wallingford CT 06492
  
  
 ---------------------------------------------------------------
 Warning -- This program may not be used in any manner that
 competes with the business of Gaussian, Inc. or will provide
 assistance to any competitor of Gaussian, Inc.  The licensee
 of this program is prohibited from giving any competitor of
 Gaussian, Inc. access to this program.  By using this program,
 the user acknowledges that Gaussian, Inc. is engaged in the
 business of creating and licensing software in the field of
 computational chemistry and represents and warrants to the
 licensee that it is not a competitor of Gaussian, Inc. and that
 it will not use this program in any manner prohibited above.
 ---------------------------------------------------------------
  

 Cite this work as:
 Gaussian 16, Revision C.01,
 M. J. Frisch, G. W. Trucks, H. B. Schlegel, G. E. Scuseria, 
 M. A. Robb, J. R. Cheeseman, G. Scalmani, V. Barone, 
 G. A. Petersson, H. Nakatsuji, X. Li, M. Caricato, A. V. Marenich, 
 J. Bloino, B. G. Janesko, R. Gomperts, B. Mennucci, H. P. Hratchian, 
 J. V. Ortiz, A. F. Izmaylov, J. L. Sonnenberg, D. Williams-Young, 
 F. Ding, F. Lipparini, F. Egidi, J. Goings, B. Peng, A. Petrone, 
 T. Henderson, D. Ranasinghe, V. G. Zakrzewski, J. Gao, N. Rega, 
 G. Zheng, W. Liang, M. Hada, M. Ehara, K. Toyota, R. Fukuda, 
 J. Hasegawa, M. Ishida, T. Nakajima, Y. Honda, O. Kitao, H. Nakai, 
 T. Vreven, K. Throssell, J. A. Montgomery, Jr., J. E. Peralta, 
 F. Ogliaro, M. J. Bearpark, J. J. Heyd, E. N. Brothers, K. N. Kudin, 
 V. N. Staroverov, T. A. Keith, R. Kobayashi, J. Normand, 
 K. Raghavachari, A. P. Rendell, J. C. Burant, S. S. Iyengar, 
 J. Tomasi, M. Cossi, J. M. Millam, M. Klene, C. Adamo, R. Cammi, 
 J. W. Ochterski, R. L. Martin, K. Morokuma, O. Farkas, 
 J. B. Foresman, and D. J. Fox, Gaussian, Inc., Wallingford CT, 2019.
 
 ******************************************
 Gaussian 16:  ES64L-G16RevC.01  3-Jul-2019
                 5-Jan-2022 
 ******************************************
 %chk=4znn_01_gebf_pm6_14.chk
 %nproc=56
 Will use up to   56 processors via shared memory.
 %mem=3gb
 ---------------------------------
 #p int=acc2e=12 pm6 charge nosymm
 ---------------------------------
 1/18=10,28=-2,38=1,125=101,172=1/1;
 2/12=2,15=1,17=6,18=5,40=1/2;
 3/5=2,25=1,27=12,41=3900000/1,2,3;
 4/35=1/1;
 5/5=2,35=1,38=5,87=12/2;
 6/7=2,8=2,9=2,10=2,28=1,87=12/1;
 99/5=1,9=1/99;
 Leave Link    1 at Wed Jan  5 15:22:25 2022, MaxMem=   402653184 cpu:               1.9 elap:               0.5
 (Enter /work/01114/jfonner/frontera/gaussian/16rC.01/g16/l101.exe)
 --------------
 Atom number=14
 --------------
 Symbolic Z-matrix:
 Charge =  0 Multiplicity = 1
 c                     3.006     0.047     14.361 
 o                     2.958    -1.169     14.515 
 n                     3.481     0.887     15.262 
 c                     4.163     0.392     16.442 
 c                     3.424     0.965     17.631 
 o                     3.136     2.11      17.612 
 n                     3.173     0.129     18.647 
 c                     2.559     0.516     19.903 
 c                     5.688     0.75      16.389 
 o                     6.264     0.13      15.236 
 h                     2.70245   0.50124   13.44099 
 h                     6.2137    0.36219   17.23644 
 h                     3.12112   0.06261   20.69253 
 h                     1.55947   0.13828   19.95927 
 
 ITRead=  0  0  0  0  0  0  0  0  0  0  0  0  0  0
 MicOpt= -1 -1 -1 -1 -1 -1 -1 -1 -1 -1 -1 -1 -1 -1
 NAtoms=     14 NQM=       14 NQMF=       0 NMMI=      0 NMMIF=      0
                NMic=       0 NMicF=      0.
                    Isotopes and Nuclear Properties:
 (Nuclear quadrupole moments (NQMom) in fm**2, nuclear magnetic moments (NMagM)
  in nuclear magnetons)

  Atom         1           2           3           4           5           6           7           8           9          10
 IAtWgt=          12          16          14          12          12          16          14          12          12          16
 AtmWgt=  12.0000000  15.9949146  14.0030740  12.0000000  12.0000000  15.9949146  14.0030740  12.0000000  12.0000000  15.9949146
 NucSpn=           0           0           2           0           0           0           2           0           0           0
 AtZEff=  -0.0000000  -0.0000000  -0.0000000  -0.0000000  -0.0000000  -0.0000000  -0.0000000  -0.0000000  -0.0000000  -0.0000000
 NQMom=    0.0000000   0.0000000   2.0440000   0.0000000   0.0000000   0.0000000   2.0440000   0.0000000   0.0000000   0.0000000
 NMagM=    0.0000000   0.0000000   0.4037610   0.0000000   0.0000000   0.0000000   0.4037610   0.0000000   0.0000000   0.0000000
 AtZNuc=   6.0000000   8.0000000   7.0000000   6.0000000   6.0000000   8.0000000   7.0000000   6.0000000   6.0000000   8.0000000

  Atom        11          12          13          14
 IAtWgt=           1           1           1           1
 AtmWgt=   1.0078250   1.0078250   1.0078250   1.0078250
 NucSpn=           1           1           1           1
 AtZEff=  -0.0000000  -0.0000000  -0.0000000  -0.0000000
 NQMom=    0.0000000   0.0000000   0.0000000   0.0000000
 NMagM=    2.7928460   2.7928460   2.7928460   2.7928460
 AtZNuc=   1.0000000   1.0000000   1.0000000   1.0000000
 Background charge distribution read from input stream:
 Point Charges:
 XYZ=   -6.8150   -0.6680    1.6070 Q=    0.1840 A=    0.0000 R=    0.0000 C=    0.0000
 XYZ=   -5.7140    0.0020    2.3730 Q=    0.1690 A=    0.0000 R=    0.0000 C=    0.0000
 XYZ=   -4.3570   -0.6730    2.5880 Q=    0.1957 A=    0.0000 R=    0.0000 C=    0.0000
 XYZ=   -4.2120   -1.8700    2.4920 Q=   -0.4612 A=    0.0000 R=    0.0000 C=    0.0000
 XYZ=   -3.3810    0.1250    2.9530 Q=   -0.3003 A=    0.0000 R=    0.0000 C=    0.0000
 XYZ=   -2.0620   -0.3900    3.2740 Q=    0.2639 A=    0.0000 R=    0.0000 C=    0.0000
 XYZ=   -1.6360    0.1750    4.6000 Q=    0.1489 A=    0.0000 R=    0.0000 C=    0.0000
 XYZ=   -1.7440    1.3560    4.8620 Q=   -0.3095 A=    0.0000 R=    0.0000 C=    0.0000
 XYZ=   -0.9930   -0.0450    2.1970 Q=   -1.2213 A=    0.0000 R=    0.0000 C=    0.0000
 XYZ=    0.3900   -0.4880    2.6400 Q=    0.9359 A=    0.0000 R=    0.0000 C=    0.0000
 XYZ=   -1.3780   -0.6620    0.8970 Q=    0.8742 A=    0.0000 R=    0.0000 C=    0.0000
 XYZ=   -1.0950   -0.7000    5.4150 Q=   -0.4278 A=    0.0000 R=    0.0000 C=    0.0000
 XYZ=   -0.5720   -0.3110    6.6690 Q=    0.2444 A=    0.0000 R=    0.0000 C=    0.0000
 XYZ=    0.8400   -0.8540    6.7920 Q=    0.2936 A=    0.0000 R=    0.0000 C=    0.0000
 XYZ=    1.0270   -2.0220    6.7200 Q=   -0.4615 A=    0.0000 R=    0.0000 C=    0.0000
 XYZ=   -1.4110   -0.9130    7.7970 Q=   -1.2093 A=    0.0000 R=    0.0000 C=    0.0000
 XYZ=   -0.7270   -0.6450    9.1230 Q=    0.9838 A=    0.0000 R=    0.0000 C=    0.0000
 XYZ=   -2.8000   -0.3490    7.7890 Q=    0.9737 A=    0.0000 R=    0.0000 C=    0.0000
 XYZ=    1.8100    0.0020    7.0230 Q=   -0.6094 A=    0.0000 R=    0.0000 C=    0.0000
 XYZ=    3.1910   -0.4290    7.1010 Q=   -0.0383 A=    0.0000 R=    0.0000 C=    0.0000
 XYZ=    3.9110    0.2580    8.2290 Q=    0.2652 A=    0.0000 R=    0.0000 C=    0.0000
 XYZ=    4.0640    1.4780    8.2280 Q=   -0.5489 A=    0.0000 R=    0.0000 C=    0.0000
 XYZ=    3.8710   -0.1030    5.7480 Q=    0.4467 A=    0.0000 R=    0.0000 C=    0.0000
 XYZ=    5.2470   -0.6430    5.5810 Q=   -0.4177 A=    0.0000 R=    0.0000 C=    0.0000
 XYZ=    5.8610   -0.6890    4.3530 Q=   -0.2968 A=    0.0000 R=    0.0000 C=    0.0000
 XYZ=    6.1080   -1.1970    6.4480 Q=    0.2630 A=    0.0000 R=    0.0000 C=    0.0000
 XYZ=    7.0590   -1.2270    4.4820 Q=    0.6103 A=    0.0000 R=    0.0000 C=    0.0000
 XYZ=    7.2390   -1.5230    5.7510 Q=   -0.3347 A=    0.0000 R=    0.0000 C=    0.0000
 XYZ=    4.3640   -0.5270    9.1890 Q=   -0.5070 A=    0.0000 R=    0.0000 C=    0.0000
 XYZ=    5.0670    0.0200   10.3260 Q=    0.3996 A=    0.0000 R=    0.0000 C=    0.0000
 XYZ=    4.2710    0.8170   11.2960 Q=    0.1621 A=    0.0000 R=    0.0000 C=    0.0000
 XYZ=    4.3590    2.0330   11.3670 Q=   -0.2980 A=    0.0000 R=    0.0000 C=    0.0000
 XYZ=    3.4920    0.1040   12.0730 Q=   -0.4667 A=    0.0000 R=    0.0000 C=    0.0000
 XYZ=    2.5850    0.6770   13.0850 Q=    0.2746 A=    0.0000 R=    0.0000 C=    0.0000
 XYZ=    1.1270    0.3300   12.8270 Q=   -1.2217 A=    0.0000 R=    0.0000 C=    0.0000
 XYZ=    0.2480    0.6750   14.0380 Q=    0.9822 A=    0.0000 R=    0.0000 C=    0.0000
 XYZ=    0.6740    1.0470   11.5960 Q=    0.9278 A=    0.0000 R=    0.0000 C=    0.0000
 XYZ=    6.4200    0.2100   17.5690 Q=    0.9463 A=    0.0000 R=    0.0000 C=    0.0000
 XYZ=    3.3500   -0.1220   21.0140 Q=    0.1847 A=    0.0000 R=    0.0000 C=    0.0000
 XYZ=    3.3660   -1.3390   21.1400 Q=   -0.4163 A=    0.0000 R=    0.0000 C=    0.0000
 XYZ=    1.1380   -0.0210   19.9830 Q=   -0.2907 A=    0.0000 R=    0.0000 C=    0.0000
 XYZ=    0.3930    0.3940   18.8240 Q=   -0.3415 A=    0.0000 R=    0.0000 C=    0.0000
 XYZ=    0.4860    0.5010   21.1670 Q=    0.7765 A=    0.0000 R=    0.0000 C=    0.0000
 XYZ=    4.0670    0.6880   21.7680 Q=   -0.6191 A=    0.0000 R=    0.0000 C=    0.0000
 XYZ=    4.8880    0.2050   22.8510 Q=    0.2833 A=    0.0000 R=    0.0000 C=    0.0000
 XYZ=    4.3500    0.7690   24.1740 Q=    0.1730 A=    0.0000 R=    0.0000 C=    0.0000
 XYZ=    4.1610    1.9810   24.2690 Q=   -0.2861 A=    0.0000 R=    0.0000 C=    0.0000
 XYZ=    6.3620    0.6140   22.6520 Q=   -1.1933 A=    0.0000 R=    0.0000 C=    0.0000
 XYZ=    7.1520    0.2970   23.8740 Q=    0.8585 A=    0.0000 R=    0.0000 C=    0.0000
 XYZ=    6.9530   -0.1210   21.4550 Q=    0.9590 A=    0.0000 R=    0.0000 C=    0.0000
 XYZ=    4.0650   -0.1200   25.1510 Q=   -0.4907 A=    0.0000 R=    0.0000 C=    0.0000
 XYZ=    3.7200    0.3130   26.5150 Q=   -0.3576 A=    0.0000 R=    0.0000 C=    0.0000
 XYZ=    4.9410    0.1400   27.4200 Q=    0.0549 A=    0.0000 R=    0.0000 C=    0.0000
 XYZ=    5.7140   -0.8090   27.2870 Q=   -0.0565 A=    0.0000 R=    0.0000 C=    0.0000
 XYZ=    2.4990   -0.4220   27.0620 Q=    1.1023 A=    0.0000 R=    0.0000 C=    0.0000
 XYZ=    5.2500    0.9550   28.2940 Q=    0.3115 A=    0.0000 R=    0.0000 C=    0.0000
 Pt Chg Charge=              2.0667 electrons
 Pt Chg Dipole moment (Debye):
    X=             23.4905    Y=             -0.5919    Z=            198.8417  Tot=            200.2253
 Pt Chg Quadrupole moment (Debye-Ang):
   XX=            386.5654   YY=            -30.3352   ZZ=           4751.1343
   XY=            -37.0056   XZ=            767.1576   YZ=            -16.8207
 Pt Chg Traceless Quadrupole moment (Debye-Ang):
   XX=          -1315.8894   YY=          -1732.7900   ZZ=           3048.6794
   XY=            -37.0056   XZ=            767.1576   YZ=            -16.8207
 Pt Chg Octapole moment (Debye-Ang**2):
  XXX=           2357.2892  YYY=              9.3417  ZZZ=         116181.8226  XYY=            -50.3711
  XXY=           -164.1490  XXZ=           7157.0989  XZZ=          19529.1110  YZZ=          -1128.2437
  YYZ=           -315.4639  XYZ=           -502.1454
 Pt Chg Hexadecapole moment (Debye-Ang**3):
 XXXX=          23607.3148 YYYY=           -128.2561 ZZZZ=        2952800.3955 XXXY=           -977.1875
 XXXZ=          53851.5493 YYYX=           -152.3408 YYYZ=           -119.9891 ZZZX=         480811.5667
 ZZZY=         -36900.7703 XXYY=           -456.2743 XXZZ=         154507.7585 YYZZ=          -4730.5439
 XXYZ=          -2296.9818 YYXZ=          -1200.4187 ZZXY=          -9309.2240
 Leave Link  101 at Wed Jan  5 15:22:27 2022, MaxMem=   402653184 cpu:               7.7 elap:               1.7
 (Enter /work/01114/jfonner/frontera/gaussian/16rC.01/g16/l202.exe)
                          Input orientation:                          
 ---------------------------------------------------------------------
 Center     Atomic      Atomic             Coordinates (Angstroms)
 Number     Number       Type             X           Y           Z
 ---------------------------------------------------------------------
      1          6           0        3.006000    0.047000   14.361000
      2          8           0        2.958000   -1.169000   14.515000
      3          7           0        3.481000    0.887000   15.262000
      4          6           0        4.163000    0.392000   16.442000
      5          6           0        3.424000    0.965000   17.631000
      6          8           0        3.136000    2.110000   17.612000
      7          7           0        3.173000    0.129000   18.647000
      8          6           0        2.559000    0.516000   19.903000
      9          6           0        5.688000    0.750000   16.389000
     10          8           0        6.264000    0.130000   15.236000
     11          1           0        2.702453    0.501239   13.440986
     12          1           0        6.213697    0.362191   17.236435
     13          1           0        3.121121    0.062608   20.692528
     14          1           0        1.559471    0.138275   19.959272
 ---------------------------------------------------------------------
                    Distance matrix (angstroms):
                    1          2          3          4          5
     1  C    0.000000
     2  O    1.226652   0.000000
     3  N    1.320237   2.249150   0.000000
     4  C    2.405875   2.757186   1.450017   0.000000
     5  C    3.422039   3.805334   2.370969   1.512670   0.000000
     6  O    3.852515   4.513860   2.671564   2.318438   1.180818
     7  N    4.290036   4.336410   3.482478   2.431315   1.339460
     8  C    5.579743   5.659414   4.746220   3.816636   2.472208
     9  C    3.435130   3.827184   2.481884   1.567354   2.591232
    10  O    3.374474   3.624483   2.884235   2.436654   3.807736
    11  H    1.070000   2.002126   2.017682   3.339344   4.276906
    12  H    4.319351   4.511133   3.411957   2.199403   2.881227
    13  H    6.332594   6.301216   5.504523   4.388736   3.206088
    14  H    5.782856   5.771044   5.130032   4.383371   3.095285
                    6          7          8          9         10
     6  O    0.000000
     7  N    2.235387   0.000000
     8  C    2.849991   1.450621   0.000000
     9  C    3.139750   3.436485   4.711008   0.000000
    10  O    4.398882   4.603173   5.971341   1.430239   0.000000
    11  H    4.491485   5.240473   6.463623   4.203113   4.005560
    12  H    3.559228   3.360046   4.526703   1.070000   2.014493
    13  H    3.698877   2.047263   1.070000   5.057838   6.297295
    14  H    3.447148   2.079812   1.070000   5.492340   6.666480
                   11         12         13         14
    11  H    0.000000
    12  H    5.172389   0.000000
    13  H    7.276850   4.647403   0.000000
    14  H    6.627685   5.396832   1.726888   0.000000
 Symmetry turned off by external request.
 Stoichiometry    C5H4N2O3
 Framework group  C1[X(C5H4N2O3)]
 Deg. of freedom    36
 Full point group                 C1      NOp   1
 Rotational constants (GHZ):           1.9688868           0.8943593           0.7492200
 Leave Link  202 at Wed Jan  5 15:22:28 2022, MaxMem=   402653184 cpu:               3.2 elap:               0.8
 (Enter /work/01114/jfonner/frontera/gaussian/16rC.01/g16/l301.exe)
 Standard basis: VSTO-6G (5D, 7F)
 Ernie: Thresh=  0.10000D-02 Tol=  0.10000D-05 Strict=F.
  NNHCO=     0 NNPyr=     0 NCTC=     0               EPep=         0.000000000
    EC=       212.585141103  ECS=         3.288748747   EG=         0.260780879
   EHC=         0.001252039  EAt=       -67.335061145  AtH=         2.338665885
 EPDDG=         0.000000000  ECC=       216.135922767 EAtT=        69.673727030
    44 basis functions,   264 primitive gaussians,    44 cartesian basis functions
    26 alpha electrons       26 beta electrons
       nuclear repulsion energy       285.8096497976 Hartrees.
 IExCor=    0 DFT=F Ex=HF Corr=None ExCW=0 ScaHFX=  1.000000
 ScaDFX=  1.000000  1.000000  1.000000  1.000000 ScalE2=  1.000000  1.000000
 IRadAn=      5 IRanWt=     -1 IRanGd=            0 ICorTp=0 IEmpDi=  4
 Integral buffers will be    131072 words long.
 Regular integral format.
 Two-electron integral symmetry is turned off.
 Background charge distribution read from rwf.
 PtFMM for NChg=        70 BoxLen=    40.00 Levels= 1 LMax=20 SMax=    51.8 ICnFMM=     1:
 Self energy of the charges =        -3.6470688907 a.u.
 MM   energy of the charges =         0.0000000000 a.u.
 Nuclei-charges interaction =         9.9222198589 a.u.
 Nuclear repulsion after external point charges =      292.0848007658 Hartrees.
 Leave Link  301 at Wed Jan  5 15:22:29 2022, MaxMem=   402653184 cpu:               5.3 elap:               1.1
 (Enter /work/01114/jfonner/frontera/gaussian/16rC.01/g16/l302.exe)
 Do NDO integrals.
 NPDir=0 NMtPBC=     1 NCelOv=     1 NCel=       1 NClECP=     1 NCelD=      1
         NCelK=      1 NCelE2=     1 NClLst=     1 CellRange=     0.0.
 One-electron integrals computed using PRISM.
 NBasis=    44 RedAO= F EigKep=  0.00D+00  NBF=    44
 NBsUse=    44 1.00D-04 EigRej=  0.00D+00 NBFU=    44
 Leave Link  302 at Wed Jan  5 15:22:34 2022, MaxMem=   402653184 cpu:              26.4 elap:               4.4
 (Enter /work/01114/jfonner/frontera/gaussian/16rC.01/g16/l303.exe)
 DipDrv:  MaxL=1.
 Leave Link  303 at Wed Jan  5 15:22:34 2022, MaxMem=   402653184 cpu:               3.3 elap:               0.8
 (Enter /work/01114/jfonner/frontera/gaussian/16rC.01/g16/l401.exe)
 Simple Huckel Guess.
 JPrj=0 DoOrth=F DoCkMO=F.
 Leave Link  401 at Wed Jan  5 15:22:36 2022, MaxMem=   402653184 cpu:               9.8 elap:               2.1
 (Enter /work/01114/jfonner/frontera/gaussian/16rC.01/g16/l502.exe)
 Keep J ints in memory in canonical form, NReq=865179.
 FoFCou: FMM=F IPFlag=           0 FMFlag=           0 FMFlg1=           0
         NFxFlg=           0 DoJE=F BraDBF=F KetDBF=F FulRan=T
         wScrn=  0.000000 ICntrl=       600 IOpCl=  2 I1Cent=           0 NGrid=           0
         NMat0=    1 NMatS0=    104 NMatT0=    0 NMatD0=    1 NMtDS0=    0 NMtDT0=    0
 Symmetry not used in FoFCou.
 Two-electron integral symmetry not used.
 Closed shell SCF:
 Using DIIS extrapolation, IDIIS=  1040.
 Overlap will be assumed to be unity.
 NGot=   402653184 LenX=   402581398 LenY=   402579021
 Requested convergence on RMS density matrix=1.00D-08 within 128 cycles.
 Requested convergence on MAX density matrix=1.00D-06.
 Requested convergence on             energy=1.00D-06.
 No special actions if energy rises.

 Cycle   1  Pass 1  IDiag  1:
 E= -2.13117151631604    
 DIIS: error= 4.55D-02 at cycle   1 NSaved=   1.
 NSaved= 1 IEnMin= 1 EnMin= -2.13117151631604     IErMin= 1 ErrMin= 4.55D-02
 ErrMax= 4.55D-02  0.00D+00 EMaxC= 1.00D-01 BMatC= 1.53D-01 BMatP= 1.53D-01
 IDIUse=3 WtCom= 5.45D-01 WtEn= 4.55D-01
 Coeff-Com:  0.100D+01
 Coeff-En:   0.100D+01
 Coeff:      0.100D+01
 GapD=    2.000 DampG=2.000 DampE=0.500 DampFc=1.0000 IDamp=-1.
 RMSDP=3.70D-02 MaxDP=6.47D-01              OVMax= 0.00D+00

 Cycle   2  Pass 1  IDiag  1:
 E= -2.18543348749222     Delta-E=       -0.054261971176 Rises=F Damp=F
 DIIS: error= 5.05D-02 at cycle   2 NSaved=   2.
 NSaved= 2 IEnMin= 2 EnMin= -2.18543348749222     IErMin= 1 ErrMin= 4.55D-02
 ErrMax= 5.05D-02  0.00D+00 EMaxC= 1.00D-01 BMatC= 1.35D-01 BMatP= 1.53D-01
 IDIUse=3 WtCom= 4.95D-01 WtEn= 5.05D-01
 Coeff-Com:  0.466D+00 0.534D+00
 Coeff-En:   0.444D+00 0.556D+00
 Coeff:      0.455D+00 0.545D+00
 RMSDP=3.23D-02 MaxDP=6.24D-01 DE=-5.43D-02 OVMax= 0.00D+00

 Cycle   3  Pass 1  IDiag  1:
 E= -2.77852601673203     Delta-E=       -0.593092529240 Rises=F Damp=F
 DIIS: error= 2.09D-02 at cycle   3 NSaved=   3.
 NSaved= 3 IEnMin= 3 EnMin= -2.77852601673203     IErMin= 3 ErrMin= 2.09D-02
 ErrMax= 2.09D-02  0.00D+00 EMaxC= 1.00D-01 BMatC= 3.00D-02 BMatP= 1.35D-01
 IDIUse=3 WtCom= 7.91D-01 WtEn= 2.09D-01
 Coeff-Com: -0.274D+00 0.250D+00 0.102D+01
 Coeff-En:   0.000D+00 0.000D+00 0.100D+01
 Coeff:     -0.217D+00 0.198D+00 0.102D+01
 RMSDP=1.02D-02 MaxDP=9.08D-02 DE=-5.93D-01 OVMax= 0.00D+00

 Cycle   4  Pass 1  IDiag  1:
 E= -2.91173772332166     Delta-E=       -0.133211706590 Rises=F Damp=F
 DIIS: error= 9.27D-03 at cycle   4 NSaved=   4.
 NSaved= 4 IEnMin= 4 EnMin= -2.91173772332166     IErMin= 4 ErrMin= 9.27D-03
 ErrMax= 9.27D-03  0.00D+00 EMaxC= 1.00D-01 BMatC= 3.36D-03 BMatP= 3.00D-02
 IDIUse=3 WtCom= 9.07D-01 WtEn= 9.27D-02
 Coeff-Com:  0.646D-01-0.524D-02-0.414D+00 0.135D+01
 Coeff-En:   0.000D+00 0.000D+00 0.000D+00 0.100D+01
 Coeff:      0.586D-01-0.475D-02-0.376D+00 0.132D+01
 RMSDP=5.54D-03 MaxDP=4.57D-02 DE=-1.33D-01 OVMax= 0.00D+00

 Cycle   5  Pass 1  IDiag  3:
 E= -2.93557854382198     Delta-E=       -0.023840820500 Rises=F Damp=F
 DIIS: error= 2.79D-03 at cycle   5 NSaved=   5.
 NSaved= 5 IEnMin= 5 EnMin= -2.93557854382198     IErMin= 5 ErrMin= 2.79D-03
 ErrMax= 2.79D-03  0.00D+00 EMaxC= 1.00D-01 BMatC= 4.22D-04 BMatP= 3.36D-03
 IDIUse=3 WtCom= 9.72D-01 WtEn= 2.79D-02
 Coeff-Com: -0.101D-01-0.198D-01 0.603D-01-0.380D+00 0.135D+01
 Coeff-En:   0.000D+00 0.000D+00 0.000D+00 0.000D+00 0.100D+01
 Coeff:     -0.979D-02-0.192D-01 0.586D-01-0.369D+00 0.134D+01
 Gap=     0.199 Goal=   None    Shift=    0.000
 RMSDP=2.82D-03 MaxDP=2.17D-02 DE=-2.38D-02 OVMax= 4.85D-02

 Cycle   6  Pass 1  IDiag  3:
 E= -2.94024558049085     Delta-E=       -0.004667036669 Rises=F Damp=F
 DIIS: error= 1.76D-03 at cycle   6 NSaved=   6.
 NSaved= 6 IEnMin= 6 EnMin= -2.94024558049085     IErMin= 6 ErrMin= 1.76D-03
 ErrMax= 1.76D-03  0.00D+00 EMaxC= 1.00D-01 BMatC= 1.59D-04 BMatP= 4.22D-04
 IDIUse=3 WtCom= 9.82D-01 WtEn= 1.76D-02
 Coeff-Com: -0.473D-02-0.487D-02 0.498D-01 0.978D-01-0.814D+00 0.168D+01
 Coeff-En:   0.000D+00 0.000D+00 0.000D+00 0.000D+00 0.000D+00 0.100D+01
 Coeff:     -0.464D-02-0.479D-02 0.489D-01 0.961D-01-0.800D+00 0.166D+01
 Gap=     0.204 Goal=   None    Shift=    0.000
 RMSDP=1.94D-03 MaxDP=1.54D-02 DE=-4.67D-03 OVMax= 3.81D-02

 Cycle   7  Pass 1  IDiag  3:
 E= -2.94224959129554     Delta-E=       -0.002004010805 Rises=F Damp=F
 DIIS: error= 8.41D-04 at cycle   7 NSaved=   7.
 NSaved= 7 IEnMin= 7 EnMin= -2.94224959129554     IErMin= 7 ErrMin= 8.41D-04
 ErrMax= 8.41D-04  0.00D+00 EMaxC= 1.00D-01 BMatC= 4.85D-05 BMatP= 1.59D-04
 IDIUse=3 WtCom= 9.92D-01 WtEn= 8.41D-03
 Coeff-Com:  0.290D-02 0.115D-02-0.292D-01-0.652D-01 0.491D+00-0.144D+01
 Coeff-Com:  0.204D+01
 Coeff-En:   0.000D+00 0.000D+00 0.000D+00 0.000D+00 0.000D+00 0.000D+00
 Coeff-En:   0.100D+01
 Coeff:      0.288D-02 0.114D-02-0.289D-01-0.647D-01 0.487D+00-0.143D+01
 Coeff:      0.203D+01
 Gap=     0.210 Goal=   None    Shift=    0.000
 RMSDP=1.74D-03 MaxDP=1.09D-02 DE=-2.00D-03 OVMax= 3.72D-02

 Cycle   8  Pass 1  IDiag  3:
 E= -2.94332380229423     Delta-E=       -0.001074210999 Rises=F Damp=F
 DIIS: error= 6.29D-04 at cycle   8 NSaved=   8.
 NSaved= 8 IEnMin= 8 EnMin= -2.94332380229423     IErMin= 8 ErrMin= 6.29D-04
 ErrMax= 6.29D-04  0.00D+00 EMaxC= 1.00D-01 BMatC= 1.81D-05 BMatP= 4.85D-05
 IDIUse=3 WtCom= 9.94D-01 WtEn= 6.29D-03
 Coeff-Com: -0.193D-02 0.367D-03 0.183D-01 0.255D-01-0.250D+00 0.893D+00
 Coeff-Com: -0.182D+01 0.214D+01
 Coeff-En:   0.000D+00 0.000D+00 0.000D+00 0.000D+00 0.000D+00 0.000D+00
 Coeff-En:   0.000D+00 0.100D+01
 Coeff:     -0.192D-02 0.365D-03 0.182D-01 0.253D-01-0.248D+00 0.887D+00
 Coeff:     -0.181D+01 0.213D+01
 Gap=     0.211 Goal=   None    Shift=    0.000
 RMSDP=1.29D-03 MaxDP=1.05D-02 DE=-1.07D-03 OVMax= 3.02D-02

 Cycle   9  Pass 1  IDiag  3:
 E= -2.94382806559679     Delta-E=       -0.000504263303 Rises=F Damp=F
 DIIS: error= 4.70D-04 at cycle   9 NSaved=   9.
 NSaved= 9 IEnMin= 9 EnMin= -2.94382806559679     IErMin= 9 ErrMin= 4.70D-04
 ErrMax= 4.70D-04  0.00D+00 EMaxC= 1.00D-01 BMatC= 8.20D-06 BMatP= 1.81D-05
 IDIUse=3 WtCom= 9.95D-01 WtEn= 4.70D-03
 Coeff-Com:  0.635D-03-0.131D-02-0.362D-03 0.234D-01-0.969D-01 0.223D-01
 Coeff-Com:  0.453D+00-0.147D+01 0.207D+01
 Coeff-En:   0.000D+00 0.000D+00 0.000D+00 0.000D+00 0.000D+00 0.000D+00
 Coeff-En:   0.000D+00 0.000D+00 0.100D+01
 Coeff:      0.632D-03-0.130D-02-0.360D-03 0.233D-01-0.965D-01 0.222D-01
 Coeff:      0.451D+00-0.147D+01 0.207D+01
 Gap=     0.213 Goal=   None    Shift=    0.000
 RMSDP=1.01D-03 MaxDP=9.42D-03 DE=-5.04D-04 OVMax= 2.45D-02

 Cycle  10  Pass 1  IDiag  3:
 E= -2.94407993246040     Delta-E=       -0.000251866864 Rises=F Damp=F
 DIIS: error= 3.32D-04 at cycle  10 NSaved=  10.
 NSaved=10 IEnMin=10 EnMin= -2.94407993246040     IErMin=10 ErrMin= 3.32D-04
 ErrMax= 3.32D-04  0.00D+00 EMaxC= 1.00D-01 BMatC= 3.75D-06 BMatP= 8.20D-06
 IDIUse=3 WtCom= 9.97D-01 WtEn= 3.32D-03
 Coeff-Com:  0.183D-03-0.101D-03-0.680D-02-0.266D-02 0.106D+00-0.252D+00
 Coeff-Com:  0.208D+00 0.254D+00-0.135D+01 0.204D+01
 Coeff-En:   0.000D+00 0.000D+00 0.000D+00 0.000D+00 0.000D+00 0.000D+00
 Coeff-En:   0.000D+00 0.000D+00 0.000D+00 0.100D+01
 Coeff:      0.182D-03-0.100D-03-0.678D-02-0.265D-02 0.105D+00-0.251D+00
 Coeff:      0.207D+00 0.253D+00-0.135D+01 0.204D+01
 Gap=     0.214 Goal=   None    Shift=    0.000
 RMSDP=7.44D-04 MaxDP=7.84D-03 DE=-2.52D-04 OVMax= 1.68D-02

 Cycle  11  Pass 1  IDiag  3:
 E= -2.94419420293622     Delta-E=       -0.000114270476 Rises=F Damp=F
 DIIS: error= 2.06D-04 at cycle  11 NSaved=  11.
 NSaved=11 IEnMin=11 EnMin= -2.94419420293622     IErMin=11 ErrMin= 2.06D-04
 ErrMax= 2.06D-04  0.00D+00 EMaxC= 1.00D-01 BMatC= 1.48D-06 BMatP= 3.75D-06
 IDIUse=3 WtCom= 9.98D-01 WtEn= 2.06D-03
 Coeff-Com:  0.500D-03 0.435D-03-0.604D-03 0.363D-03-0.181D-01 0.625D-01
 Coeff-Com: -0.100D+00 0.911D-01 0.222D+00-0.122D+01 0.196D+01
 Coeff-En:   0.000D+00 0.000D+00 0.000D+00 0.000D+00 0.000D+00 0.000D+00
 Coeff-En:   0.000D+00 0.000D+00 0.000D+00 0.000D+00 0.100D+01
 Coeff:      0.499D-03 0.434D-03-0.603D-03 0.362D-03-0.181D-01 0.623D-01
 Coeff:     -0.100D+00 0.909D-01 0.222D+00-0.122D+01 0.196D+01
 Gap=     0.215 Goal=   None    Shift=    0.000
 RMSDP=4.68D-04 MaxDP=5.33D-03 DE=-1.14D-04 OVMax= 9.45D-03

 Cycle  12  Pass 1  IDiag  3:
 E= -2.94423649246062     Delta-E=       -0.000042289524 Rises=F Damp=F
 DIIS: error= 1.14D-04 at cycle  12 NSaved=  12.
 NSaved=12 IEnMin=12 EnMin= -2.94423649246062     IErMin=12 ErrMin= 1.14D-04
 ErrMax= 1.14D-04  0.00D+00 EMaxC= 1.00D-01 BMatC= 5.48D-07 BMatP= 1.48D-06
 IDIUse=3 WtCom= 9.99D-01 WtEn= 1.14D-03
 Coeff-Com: -0.210D-03 0.169D-03 0.252D-03-0.196D-02-0.247D-03-0.353D-02
 Coeff-Com:  0.377D-01-0.717D-01 0.272D-01 0.251D+00-0.113D+01 0.189D+01
 Coeff-En:   0.000D+00 0.000D+00 0.000D+00 0.000D+00 0.000D+00 0.000D+00
 Coeff-En:   0.000D+00 0.000D+00 0.000D+00 0.000D+00 0.000D+00 0.100D+01
 Coeff:     -0.210D-03 0.169D-03 0.252D-03-0.195D-02-0.246D-03-0.353D-02
 Coeff:      0.376D-01-0.716D-01 0.271D-01 0.250D+00-0.113D+01 0.189D+01
 Gap=     0.215 Goal=   None    Shift=    0.000
 RMSDP=2.70D-04 MaxDP=3.15D-03 DE=-4.23D-05 OVMax= 4.91D-03

 Cycle  13  Pass 1  IDiag  3:
 E= -2.94425018591613     Delta-E=       -0.000013693456 Rises=F Damp=F
 DIIS: error= 5.59D-05 at cycle  13 NSaved=  13.
 NSaved=13 IEnMin=13 EnMin= -2.94425018591613     IErMin=13 ErrMin= 5.59D-05
 ErrMax= 5.59D-05  0.00D+00 EMaxC= 1.00D-01 BMatC= 1.64D-07 BMatP= 5.48D-07
 IDIUse=1 WtCom= 1.00D+00 WtEn= 0.00D+00
 Coeff-Com: -0.135D-04 0.791D-05 0.694D-03-0.731D-03-0.788D-03 0.131D-01
 Coeff-Com: -0.445D-01 0.768D-01-0.680D-01 0.380D-01 0.141D+00-0.942D+00
 Coeff-Com:  0.179D+01
 Coeff:     -0.135D-04 0.791D-05 0.694D-03-0.731D-03-0.788D-03 0.131D-01
 Coeff:     -0.445D-01 0.768D-01-0.680D-01 0.380D-01 0.141D+00-0.942D+00
 Coeff:      0.179D+01
 Gap=     0.215 Goal=   None    Shift=    0.000
 RMSDP=1.34D-04 MaxDP=1.54D-03 DE=-1.37D-05 OVMax= 2.53D-03

 Cycle  14  Pass 1  IDiag  3:
 E= -2.94425374607977     Delta-E=       -0.000003560164 Rises=F Damp=F
 DIIS: error= 2.34D-05 at cycle  14 NSaved=  14.
 NSaved=14 IEnMin=14 EnMin= -2.94425374607977     IErMin=14 ErrMin= 2.34D-05
 ErrMax= 2.34D-05  0.00D+00 EMaxC= 1.00D-01 BMatC= 3.89D-08 BMatP= 1.64D-07
 IDIUse=1 WtCom= 1.00D+00 WtEn= 0.00D+00
 Coeff-Com:  0.666D-05-0.528D-04 0.254D-04-0.282D-03 0.780D-03-0.299D-02
 Coeff-Com:  0.100D-01-0.224D-01 0.170D-01-0.993D-02 0.325D-01 0.113D+00
 Coeff-Com: -0.840D+00 0.170D+01
 Coeff:      0.666D-05-0.528D-04 0.254D-04-0.282D-03 0.780D-03-0.299D-02
 Coeff:      0.100D-01-0.224D-01 0.170D-01-0.993D-02 0.325D-01 0.113D+00
 Coeff:     -0.840D+00 0.170D+01
 Gap=     0.215 Goal=   None    Shift=    0.000
 RMSDP=5.83D-05 MaxDP=6.28D-04 DE=-3.56D-06 OVMax= 1.09D-03

 Cycle  15  Pass 1  IDiag  3:
 E= -2.94425447845470     Delta-E=       -0.000000732375 Rises=F Damp=F
 DIIS: error= 1.09D-05 at cycle  15 NSaved=  15.
 NSaved=15 IEnMin=15 EnMin= -2.94425447845470     IErMin=15 ErrMin= 1.09D-05
 ErrMax= 1.09D-05  0.00D+00 EMaxC= 1.00D-01 BMatC= 8.69D-09 BMatP= 3.89D-08
 IDIUse=1 WtCom= 1.00D+00 WtEn= 0.00D+00
 Coeff-Com: -0.626D-05-0.346D-04 0.842D-04 0.124D-03-0.468D-03 0.298D-02
 Coeff-Com: -0.954D-02 0.167D-01-0.967D-02 0.298D-02-0.218D-01 0.121D-02
 Coeff-Com:  0.214D+00-0.861D+00 0.166D+01
 Coeff:     -0.626D-05-0.346D-04 0.842D-04 0.124D-03-0.468D-03 0.298D-02
 Coeff:     -0.954D-02 0.167D-01-0.967D-02 0.298D-02-0.218D-01 0.121D-02
 Coeff:      0.214D+00-0.861D+00 0.166D+01
 Gap=     0.215 Goal=   None    Shift=    0.000
 RMSDP=2.18D-05 MaxDP=2.07D-04 DE=-7.32D-07 OVMax= 3.27D-04

 Cycle  16  Pass 1  IDiag  3:
 E= -2.94425461901875     Delta-E=       -0.000000140564 Rises=F Damp=F
 DIIS: error= 5.14D-06 at cycle  16 NSaved=  16.
 NSaved=16 IEnMin=16 EnMin= -2.94425461901875     IErMin=16 ErrMin= 5.14D-06
 ErrMax= 5.14D-06  0.00D+00 EMaxC= 1.00D-01 BMatC= 2.05D-09 BMatP= 8.69D-09
 IDIUse=1 WtCom= 1.00D+00 WtEn= 0.00D+00
 Coeff-Com: -0.130D-04 0.999D-06 0.535D-04-0.692D-04-0.845D-04-0.783D-03
 Coeff-Com:  0.418D-02-0.108D-01 0.135D-01-0.120D-01 0.164D-01-0.147D-01
 Coeff-Com: -0.229D-01 0.219D+00-0.925D+00 0.173D+01
 Coeff:     -0.130D-04 0.999D-06 0.535D-04-0.692D-04-0.845D-04-0.783D-03
 Coeff:      0.418D-02-0.108D-01 0.135D-01-0.120D-01 0.164D-01-0.147D-01
 Coeff:     -0.229D-01 0.219D+00-0.925D+00 0.173D+01
 Gap=     0.215 Goal=   None    Shift=    0.000
 RMSDP=1.02D-05 MaxDP=1.04D-04 DE=-1.41D-07 OVMax= 1.41D-04

 Cycle  17  Pass 1  IDiag  3:
 E= -2.94425465511540     Delta-E=       -0.000000036097 Rises=F Damp=F
 DIIS: error= 2.32D-06 at cycle  17 NSaved=  17.
 NSaved=17 IEnMin=17 EnMin= -2.94425465511540     IErMin=17 ErrMin= 2.32D-06
 ErrMax= 2.32D-06  0.00D+00 EMaxC= 1.00D-01 BMatC= 4.73D-10 BMatP= 2.05D-09
 IDIUse=1 WtCom= 1.00D+00 WtEn= 0.00D+00
 Coeff-Com:  0.655D-05-0.470D-05 0.436D-04 0.557D-04-0.634D-03 0.301D-02
 Coeff-Com: -0.689D-02 0.107D-01-0.101D-01 0.759D-02-0.108D-01 0.110D-01
 Coeff-Com: -0.964D-02-0.297D-01 0.296D+00-0.112D+01 0.186D+01
 Coeff:      0.655D-05-0.470D-05 0.436D-04 0.557D-04-0.634D-03 0.301D-02
 Coeff:     -0.689D-02 0.107D-01-0.101D-01 0.759D-02-0.108D-01 0.110D-01
 Coeff:     -0.964D-02-0.297D-01 0.296D+00-0.112D+01 0.186D+01
 Gap=     0.215 Goal=   None    Shift=    0.000
 RMSDP=6.12D-06 MaxDP=6.11D-05 DE=-3.61D-08 OVMax= 1.01D-04

 Cycle  18  Pass 1  IDiag  3:
 E= -2.94425466522659     Delta-E=       -0.000000010111 Rises=F Damp=F
 DIIS: error= 1.16D-06 at cycle  18 NSaved=  18.
 NSaved=18 IEnMin=18 EnMin= -2.94425466522659     IErMin=18 ErrMin= 1.16D-06
 ErrMax= 1.16D-06  0.00D+00 EMaxC= 1.00D-01 BMatC= 9.34D-11 BMatP= 4.73D-10
 IDIUse=1 WtCom= 1.00D+00 WtEn= 0.00D+00
 Coeff-Com: -0.443D-05-0.314D-05 0.110D-05-0.156D-04 0.133D-03-0.834D-03
 Coeff-Com:  0.208D-02-0.377D-02 0.467D-02-0.453D-02 0.596D-02-0.103D-01
 Coeff-Com:  0.209D-01-0.467D-01 0.631D-01 0.122D+00-0.817D+00 0.166D+01
 Coeff:     -0.443D-05-0.314D-05 0.110D-05-0.156D-04 0.133D-03-0.834D-03
 Coeff:      0.208D-02-0.377D-02 0.467D-02-0.453D-02 0.596D-02-0.103D-01
 Coeff:      0.209D-01-0.467D-01 0.631D-01 0.122D+00-0.817D+00 0.166D+01
 Gap=     0.215 Goal=   None    Shift=    0.000
 RMSDP=2.90D-06 MaxDP=2.36D-05 DE=-1.01D-08 OVMax= 4.78D-05

 Cycle  19  Pass 1  IDiag  3:
 E= -2.94425466717530     Delta-E=       -0.000000001949 Rises=F Damp=F
 DIIS: error= 5.73D-07 at cycle  19 NSaved=  19.
 NSaved=19 IEnMin=19 EnMin= -2.94425466717530     IErMin=19 ErrMin= 5.73D-07
 ErrMax= 5.73D-07  0.00D+00 EMaxC= 1.00D-01 BMatC= 2.09D-11 BMatP= 9.34D-11
 IDIUse=1 WtCom= 1.00D+00 WtEn= 0.00D+00
 Coeff-Com:  0.248D-05-0.484D-06-0.237D-05 0.613D-05 0.426D-04 0.541D-04
 Coeff-Com: -0.500D-03 0.122D-02-0.169D-02 0.195D-02-0.285D-02 0.513D-02
 Coeff-Com: -0.125D-01 0.349D-01-0.875D-01 0.988D-01 0.161D+00-0.937D+00
 Coeff-Com:  0.174D+01
 Coeff:      0.248D-05-0.484D-06-0.237D-05 0.613D-05 0.426D-04 0.541D-04
 Coeff:     -0.500D-03 0.122D-02-0.169D-02 0.195D-02-0.285D-02 0.513D-02
 Coeff:     -0.125D-01 0.349D-01-0.875D-01 0.988D-01 0.161D+00-0.937D+00
 Coeff:      0.174D+01
 Gap=     0.215 Goal=   None    Shift=    0.000
 RMSDP=1.22D-06 MaxDP=1.02D-05 DE=-1.95D-09 OVMax= 2.02D-05

 Cycle  20  Pass 1  IDiag  3:
 E= -2.94425466754137     Delta-E=       -0.000000000366 Rises=F Damp=F
 DIIS: error= 3.05D-07 at cycle  20 NSaved=  20.
 NSaved=20 IEnMin=20 EnMin= -2.94425466754137     IErMin=20 ErrMin= 3.05D-07
 ErrMax= 3.05D-07  0.00D+00 EMaxC= 1.00D-01 BMatC= 4.81D-12 BMatP= 2.09D-11
 IDIUse=1 WtCom= 1.00D+00 WtEn= 0.00D+00
 Coeff-Com: -0.166D-05-0.362D-06 0.331D-05-0.850D-05-0.466D-04 0.113D-03
 Coeff-Com:  0.337D-04-0.404D-03 0.622D-03-0.710D-03 0.136D-02-0.323D-02
 Coeff-Com:  0.806D-02-0.221D-01 0.604D-01-0.969D-01 0.209D-02 0.425D+00
 Coeff-Com: -0.130D+01 0.192D+01
 Coeff:     -0.166D-05-0.362D-06 0.331D-05-0.850D-05-0.466D-04 0.113D-03
 Coeff:      0.337D-04-0.404D-03 0.622D-03-0.710D-03 0.136D-02-0.323D-02
 Coeff:      0.806D-02-0.221D-01 0.604D-01-0.969D-01 0.209D-02 0.425D+00
 Coeff:     -0.130D+01 0.192D+01
 Gap=     0.215 Goal=   None    Shift=    0.000
 RMSDP=5.36D-07 MaxDP=5.25D-06 DE=-3.66D-10 OVMax= 8.75D-06

 Cycle  21  Pass 1  IDiag  3:
 E= -2.94425466763136     Delta-E=       -0.000000000090 Rises=F Damp=F
 DIIS: error= 1.68D-07 at cycle  21 NSaved=  20.
 NSaved=20 IEnMin=20 EnMin= -2.94425466763136     IErMin=20 ErrMin= 1.68D-07
 ErrMax= 1.68D-07  0.00D+00 EMaxC= 1.00D-01 BMatC= 1.39D-12 BMatP= 4.81D-12
 IDIUse=1 WtCom= 1.00D+00 WtEn= 0.00D+00
 Coeff-Com:  0.667D-06-0.403D-07-0.524D-05 0.645D-04-0.191D-03 0.228D-03
 Coeff-Com: -0.718D-04-0.114D-03 0.318D-03-0.683D-03 0.149D-02-0.365D-02
 Coeff-Com:  0.108D-01-0.309D-01 0.603D-01-0.549D-01-0.103D+00 0.632D+00
 Coeff-Com: -0.161D+01 0.210D+01
 Coeff:      0.667D-06-0.403D-07-0.524D-05 0.645D-04-0.191D-03 0.228D-03
 Coeff:     -0.718D-04-0.114D-03 0.318D-03-0.683D-03 0.149D-02-0.365D-02
 Coeff:      0.108D-01-0.309D-01 0.603D-01-0.549D-01-0.103D+00 0.632D+00
 Coeff:     -0.161D+01 0.210D+01
 Gap=     0.215 Goal=   None    Shift=    0.000
 RMSDP=3.26D-07 MaxDP=3.10D-06 DE=-9.00D-11 OVMax= 5.82D-06

 Cycle  22  Pass 1  IDiag  3:
 E= -2.94425466766279     Delta-E=       -0.000000000031 Rises=F Damp=F
 DIIS: error= 8.11D-08 at cycle  22 NSaved=  20.
 NSaved=20 IEnMin=20 EnMin= -2.94425466766279     IErMin=20 ErrMin= 8.11D-08
 ErrMax= 8.11D-08  0.00D+00 EMaxC= 1.00D-01 BMatC= 3.68D-13 BMatP= 1.39D-12
 IDIUse=1 WtCom= 1.00D+00 WtEn= 0.00D+00
 Coeff-Com:  0.166D-07 0.175D-05-0.310D-04 0.103D-03-0.140D-03 0.102D-03
 Coeff-Com: -0.109D-03 0.104D-03 0.818D-04-0.413D-03 0.926D-03-0.283D-02
 Coeff-Com:  0.896D-02-0.171D-01 0.250D-01-0.121D-01-0.132D+00 0.567D+00
 Coeff-Com: -0.135D+01 0.191D+01
 Coeff:      0.166D-07 0.175D-05-0.310D-04 0.103D-03-0.140D-03 0.102D-03
 Coeff:     -0.109D-03 0.104D-03 0.818D-04-0.413D-03 0.926D-03-0.283D-02
 Coeff:      0.896D-02-0.171D-01 0.250D-01-0.121D-01-0.132D+00 0.567D+00
 Coeff:     -0.135D+01 0.191D+01
 Gap=     0.215 Goal=   None    Shift=    0.000
 RMSDP=1.74D-07 MaxDP=1.52D-06 DE=-3.14D-11 OVMax= 3.10D-06

 Cycle  23  Pass 1  IDiag  3:
 E= -2.94425466767018     Delta-E=       -0.000000000007 Rises=F Damp=F
 DIIS: error= 3.53D-08 at cycle  23 NSaved=  20.
 NSaved=20 IEnMin=20 EnMin= -2.94425466767018     IErMin=20 ErrMin= 3.53D-08
 ErrMax= 3.53D-08  0.00D+00 EMaxC= 1.00D-01 BMatC= 7.02D-14 BMatP= 3.68D-13
 IDIUse=1 WtCom= 1.00D+00 WtEn= 0.00D+00
 Coeff-Com: -0.312D-06 0.136D-04-0.493D-04 0.689D-04-0.518D-04 0.593D-04
 Coeff-Com: -0.732D-04-0.108D-04 0.174D-03-0.402D-03 0.146D-02-0.502D-02
 Coeff-Com:  0.918D-02-0.132D-01 0.903D-02 0.404D-01-0.233D+00 0.635D+00
 Coeff-Com: -0.131D+01 0.187D+01
 Coeff:     -0.312D-06 0.136D-04-0.493D-04 0.689D-04-0.518D-04 0.593D-04
 Coeff:     -0.732D-04-0.108D-04 0.174D-03-0.402D-03 0.146D-02-0.502D-02
 Coeff:      0.918D-02-0.132D-01 0.903D-02 0.404D-01-0.233D+00 0.635D+00
 Coeff:     -0.131D+01 0.187D+01
 Gap=     0.215 Goal=   None    Shift=    0.000
 RMSDP=7.66D-08 MaxDP=7.34D-07 DE=-7.39D-12 OVMax= 1.52D-06

 Cycle  24  Pass 1  IDiag  3:
 E= -2.94425466767166     Delta-E=       -0.000000000001 Rises=F Damp=F
 DIIS: error= 1.30D-08 at cycle  24 NSaved=  20.
 NSaved=20 IEnMin=20 EnMin= -2.94425466767166     IErMin=20 ErrMin= 1.30D-08
 ErrMax= 1.30D-08  0.00D+00 EMaxC= 1.00D-01 BMatC= 1.44D-14 BMatP= 7.02D-14
 IDIUse=1 WtCom= 1.00D+00 WtEn= 0.00D+00
 Large coefficients: NSaved= 20 BigCof=    0.00 CofMax=   10.00 Det=-2.45D-15
 Inversion failed.  Reducing to 19 matrices.
 Large coefficients: NSaved= 19 BigCof=    0.00 CofMax=   10.00 Det=-3.60D-15
 Inversion failed.  Reducing to 18 matrices.
 Large coefficients: NSaved= 18 BigCof=    0.00 CofMax=   10.00 Det=-4.08D-15
 Inversion failed.  Reducing to 17 matrices.
 Large coefficients: NSaved= 17 BigCof=    0.00 CofMax=   10.00 Det=-4.15D-15
 Inversion failed.  Reducing to 16 matrices.
 Large coefficients: NSaved= 16 BigCof=    0.00 CofMax=   10.00 Det=-4.18D-15
 Inversion failed.  Reducing to 15 matrices.
 Coeff-Com: -0.356D-06 0.145D-05-0.344D-04 0.408D-04-0.406D-04 0.162D-03
 Coeff-Com:  0.589D-04 0.722D-03-0.602D-02 0.237D-01-0.382D-01-0.261D-01
 Coeff-Com:  0.297D+00-0.102D+01 0.177D+01
 Coeff:     -0.356D-06 0.145D-05-0.344D-04 0.408D-04-0.406D-04 0.162D-03
 Coeff:      0.589D-04 0.722D-03-0.602D-02 0.237D-01-0.382D-01-0.261D-01
 Coeff:      0.297D+00-0.102D+01 0.177D+01
 Gap=     0.215 Goal=   None    Shift=    0.000
 RMSDP=3.46D-08 MaxDP=2.93D-07 DE=-1.48D-12 OVMax= 6.62D-07

 Cycle  25  Pass 1  IDiag  3:
 E= -2.94425466767217     Delta-E=       -0.000000000001 Rises=F Damp=F
 DIIS: error= 4.21D-09 at cycle  25 NSaved=  16.
 NSaved=16 IEnMin=16 EnMin= -2.94425466767217     IErMin=16 ErrMin= 4.21D-09
 ErrMax= 4.21D-09  0.00D+00 EMaxC= 1.00D-01 BMatC= 2.20D-15 BMatP= 1.44D-14
 IDIUse=1 WtCom= 1.00D+00 WtEn= 0.00D+00
 Large coefficients: NSaved= 16 BigCof=    0.00 CofMax=   10.00 Det=-7.15D-16
 Inversion failed.  Reducing to 15 matrices.
 Coeff-Com: -0.665D-05 0.209D-04-0.186D-04 0.291D-06-0.564D-04-0.855D-04
 Coeff-Com: -0.234D-03 0.232D-02-0.737D-02 0.120D-01 0.100D-02-0.878D-01
 Coeff-Com:  0.369D+00-0.986D+00 0.170D+01
 Coeff:     -0.665D-05 0.209D-04-0.186D-04 0.291D-06-0.564D-04-0.855D-04
 Coeff:     -0.234D-03 0.232D-02-0.737D-02 0.120D-01 0.100D-02-0.878D-01
 Coeff:      0.369D+00-0.986D+00 0.170D+01
 Gap=     0.215 Goal=   None    Shift=    0.000
 RMSDP=1.30D-08 MaxDP=9.69D-08 DE=-5.12D-13 OVMax= 2.02D-07

 Cycle  26  Pass 1  IDiag  3:
 E= -2.94425466767223     Delta-E=       -0.000000000000 Rises=F Damp=F
 DIIS: error= 1.82D-09 at cycle  26 NSaved=  16.
 NSaved=16 IEnMin=16 EnMin= -2.94425466767223     IErMin=16 ErrMin= 1.82D-09
 ErrMax= 1.82D-09  0.00D+00 EMaxC= 1.00D-01 BMatC= 2.63D-16 BMatP= 2.20D-15
 IDIUse=1 WtCom= 1.00D+00 WtEn= 0.00D+00
 Large coefficients: NSaved= 16 BigCof=    0.00 CofMax=   10.00 Det=-1.18D-16
 Inversion failed.  Reducing to 15 matrices.
 Coeff-Com: -0.704D-05 0.175D-04-0.333D-04 0.103D-03-0.105D-03-0.136D-04
 Coeff-Com:  0.118D-04 0.119D-02-0.396D-02 0.555D-02 0.702D-02-0.814D-01
 Coeff-Com:  0.307D+00-0.840D+00 0.160D+01
 Coeff:     -0.704D-05 0.175D-04-0.333D-04 0.103D-03-0.105D-03-0.136D-04
 Coeff:      0.118D-04 0.119D-02-0.396D-02 0.555D-02 0.702D-02-0.814D-01
 Coeff:      0.307D+00-0.840D+00 0.160D+01
 Gap=     0.215 Goal=   None    Shift=    0.000
 RMSDP=3.83D-09 MaxDP=3.41D-08 DE=-5.68D-14 OVMax= 4.97D-08

 Cycle  27  Pass 2  IDiag  1:
 SCF Done:  E(RPM6) =  -2.94425466767     A.U. after   27 cycles
            NFock= 26  Conv=0.38D-08     -V/T= 0.9738
 KE=-1.123020656357D+02 PE=-4.315702980510D+02 EE= 2.488433082532D+02
 Leave Link  502 at Wed Jan  5 15:23:03 2022, MaxMem=   402653184 cpu:             168.7 elap:              26.9
 (Enter /work/01114/jfonner/frontera/gaussian/16rC.01/g16/l601.exe)
 Copying SCF densities to generalized density rwf, IOpCl= 0 IROHF=0.

 **********************************************************************

            Population analysis using the SCF Density.

 **********************************************************************

 Alpha  occ. eigenvalues --   -1.41992  -1.38820  -1.33880  -1.29931  -1.28524
 Alpha  occ. eigenvalues --   -1.21363  -1.14504  -1.08350  -0.95499  -0.92624
 Alpha  occ. eigenvalues --   -0.83484  -0.81005  -0.79137  -0.78350  -0.76831
 Alpha  occ. eigenvalues --   -0.75576  -0.72048  -0.70428  -0.69712  -0.65791
 Alpha  occ. eigenvalues --   -0.64383  -0.62297  -0.58911  -0.56550  -0.55411
 Alpha  occ. eigenvalues --   -0.53889
 Alpha virt. eigenvalues --   -0.33356  -0.27656  -0.23928  -0.23176  -0.16813
 Alpha virt. eigenvalues --   -0.14608  -0.14248  -0.12319  -0.11642  -0.10305
 Alpha virt. eigenvalues --   -0.07201  -0.03138  -0.02868  -0.00114   0.00030
 Alpha virt. eigenvalues --    0.00778   0.02721   0.06102
          Condensed to atoms (all electrons):
               1          2          3          4          5          6
     1  C    3.474618   0.000000   0.000000   0.000000   0.000000   0.000000
     2  O    0.000000   6.347996   0.000000   0.000000   0.000000   0.000000
     3  N    0.000000   0.000000   5.392687   0.000000   0.000000   0.000000
     4  C    0.000000   0.000000   0.000000   3.721906   0.000000   0.000000
     5  C    0.000000   0.000000   0.000000   0.000000   3.515569   0.000000
     6  O    0.000000   0.000000   0.000000   0.000000   0.000000   6.406404
     7  N    0.000000   0.000000   0.000000   0.000000   0.000000   0.000000
     8  C    0.000000   0.000000   0.000000   0.000000   0.000000   0.000000
     9  C    0.000000   0.000000   0.000000   0.000000   0.000000   0.000000
    10  O    0.000000   0.000000   0.000000   0.000000   0.000000   0.000000
    11  H    0.000000   0.000000   0.000000   0.000000   0.000000   0.000000
    12  H    0.000000   0.000000   0.000000   0.000000   0.000000   0.000000
    13  H    0.000000   0.000000   0.000000   0.000000   0.000000   0.000000
    14  H    0.000000   0.000000   0.000000   0.000000   0.000000   0.000000
               7          8          9         10         11         12
     1  C    0.000000   0.000000   0.000000   0.000000   0.000000   0.000000
     2  O    0.000000   0.000000   0.000000   0.000000   0.000000   0.000000
     3  N    0.000000   0.000000   0.000000   0.000000   0.000000   0.000000
     4  C    0.000000   0.000000   0.000000   0.000000   0.000000   0.000000
     5  C    0.000000   0.000000   0.000000   0.000000   0.000000   0.000000
     6  O    0.000000   0.000000   0.000000   0.000000   0.000000   0.000000
     7  N    5.476252   0.000000   0.000000   0.000000   0.000000   0.000000
     8  C    0.000000   3.735600   0.000000   0.000000   0.000000   0.000000
     9  C    0.000000   0.000000   3.588638   0.000000   0.000000   0.000000
    10  O    0.000000   0.000000   0.000000   6.132506   0.000000   0.000000
    11  H    0.000000   0.000000   0.000000   0.000000   0.921037   0.000000
    12  H    0.000000   0.000000   0.000000   0.000000   0.000000   1.746670
    13  H    0.000000   0.000000   0.000000   0.000000   0.000000   0.000000
    14  H    0.000000   0.000000   0.000000   0.000000   0.000000   0.000000
              13         14
     1  C    0.000000   0.000000
     2  O    0.000000   0.000000
     3  N    0.000000   0.000000
     4  C    0.000000   0.000000
     5  C    0.000000   0.000000
     6  O    0.000000   0.000000
     7  N    0.000000   0.000000
     8  C    0.000000   0.000000
     9  C    0.000000   0.000000
    10  O    0.000000   0.000000
    11  H    0.000000   0.000000
    12  H    0.000000   0.000000
    13  H    0.862513   0.000000
    14  H    0.000000   0.677603
 Mulliken charges:
               1
     1  C    0.525382
     2  O   -0.347996
     3  N   -0.392687
     4  C    0.278094
     5  C    0.484431
     6  O   -0.406404
     7  N   -0.476252
     8  C    0.264400
     9  C    0.411362
    10  O   -0.132506
    11  H    0.078963
    12  H   -0.746670
    13  H    0.137487
    14  H    0.322397
 Sum of Mulliken charges =  -0.00000
 Mulliken charges with hydrogens summed into heavy atoms:
               1
     1  C    0.604345
     2  O   -0.347996
     3  N   -0.392687
     4  C    0.278094
     5  C    0.484431
     6  O   -0.406404
     7  N   -0.476252
     8  C    0.724284
     9  C   -0.335308
    10  O   -0.132506
 Charge=             -0.0000 electrons
 Dipole moment (field-independent basis, Debye):
    X=             -9.0267    Y=              0.0775    Z=              4.7772  Tot=             10.2132
 N-N= 2.920848007658D+02 E-N=-4.315702980135D+02  KE=-1.123020656357D+02
 Leave Link  601 at Wed Jan  5 15:23:04 2022, MaxMem=   402653184 cpu:               2.5 elap:               0.5
 (Enter /work/01114/jfonner/frontera/gaussian/16rC.01/g16/l9999.exe)

 Test job not archived.
 1\1\GINC-C208-022\SP\RPM6\ZDO\C5H4N2O3\SA748948\05-Jan-2022\0\\#p int=
 acc2e=12 pm6 charge nosymm\\Atom number=14\\0,1\C,0,3.006,0.047,14.361
 \O,0,2.958,-1.169,14.515\N,0,3.481,0.887,15.262\C,0,4.163,0.392,16.442
 \C,0,3.424,0.965,17.631\O,0,3.136,2.11,17.612\N,0,3.173,0.129,18.647\C
 ,0,2.559,0.516,19.903\C,0,5.688,0.75,16.389\O,0,6.264,0.13,15.236\H,0,
 2.70245299,0.50123899,13.44098579\H,0,6.21369711,0.36219066,17.2364352
 3\H,0,3.12112137,0.06260754,20.69252824\H,0,1.55947137,0.13827525,19.9
 5927184\\Version=ES64L-G16RevC.01\HF=-2.9442547\RMSD=3.833e-09\Dipole=
 -3.55138,0.0305072,1.8794921\PG=C01 [X(C5H4N2O3)]\\@


 A SLIP OF THE FOOT YOU MAY SOON RECOVER, BUT A SLIP OF THE TONGUE
 YOU MAY NEVER GET OVER. -- BEN FRANKLIN
 Job cpu time:       0 days  0 hours  3 minutes 51.9 seconds.
 Elapsed time:       0 days  0 hours  0 minutes 39.4 seconds.
 File lengths (MBytes):  RWF=      6 Int=      0 D2E=      0 Chk=      2 Scr=      1
 Normal termination of Gaussian 16 at Wed Jan  5 15:23:05 2022.
