Atom number=21                                                          
SP        RPM6                                                        ZDO                 
Number of atoms                            I               21
Info1-9                                    I   N=           9
          81          80           0           0           0         111
           1           8        2302
Full Title                                 C   N=           2
Atom number=21          
Route                                      C   N=           3
#p int=acc2e=12 pm6 charge nosymm   
Charge                                     I                5
Multiplicity                               I                1
Number of electrons                        I               76
Number of alpha electrons                  I               38
Number of beta electrons                   I               38
Number of basis functions                  I               72
Number of independent functions            I               72
Number of point charges in /Mol/           I                0
Number of translation vectors              I                0
Atomic numbers                             I   N=          21
           6           8           7           6           6           8
           7           6           6           6           6           8
           7           6           6           6           6           1
           1           1           1
Nuclear charges                            R   N=          21
  4.00000000E+00  6.00000000E+00  5.00000000E+00  4.00000000E+00  4.00000000E+00
  6.00000000E+00  5.00000000E+00  4.00000000E+00  4.00000000E+00  4.00000000E+00
  4.00000000E+00  6.00000000E+00  5.00000000E+00  4.00000000E+00  4.00000000E+00
  4.00000000E+00  4.00000000E+00  1.00000000E+00  1.00000000E+00  1.00000000E+00
  1.00000000E+00
Current cartesian coordinates              R   N=          63
 -8.23353672E+00 -1.27178568E+00  4.89061121E+00 -7.95952644E+00 -3.53378785E+00
  4.70919750E+00 -6.38916403E+00  2.36215766E-01  5.58036125E+00 -3.89661527E+00
 -7.36993189E-01  6.18696333E+00 -3.09159194E+00  3.30702072E-01  8.69274017E+00
 -3.29568236E+00  2.56246862E+00  9.18784842E+00 -2.06925011E+00 -1.32280829E+00
  1.02328670E+01 -1.08092334E+00 -5.87704825E-01  1.26025835E+01 -1.87649804E+00
 -8.50376756E-02  4.15172830E+00  7.36993189E-01 -9.22186349E-01  4.98887697E+00
  1.58736994E+00 -1.61382611E+00  1.28350198E+01  1.94074873E+00 -3.82102622E+00
  1.26989596E+01  3.42040429E+00  3.77945225E-03  1.32715466E+01  6.03011606E+00
 -8.10692507E-01  1.34189452E+01 -2.66640356E+00 -1.72531995E+00  1.47341946E+01
 -1.37383089E+00 -1.21887335E+00  1.72399714E+01 -5.29123315E+00 -6.59514417E-01
  1.47190768E+01 -1.00259933E+01 -3.80180544E-01  4.60661846E+00 -2.39910254E+00
 -9.22562272E-01  2.38708976E+00  6.99794047E+00  1.12773280E-01  1.49352034E+01
  6.91778422E+00 -3.85133951E-01  1.16527467E+01
Number of symbols in /Mol/                 I                0
Int Atom Types                             I   N=          21
           0           0           0           0           0           0
           0           0           0           0           0           0
           0           0           0           0           0           0
           0           0           0
Force Field                                I                0
Atom Types                                 C   N=          21
                                                            
                                                            
                                                            
                                                            
            
MM charges                                 R   N=          21
  0.00000000E+00  0.00000000E+00  0.00000000E+00  0.00000000E+00  0.00000000E+00
  0.00000000E+00  0.00000000E+00  0.00000000E+00  0.00000000E+00  0.00000000E+00
  0.00000000E+00  0.00000000E+00  0.00000000E+00  0.00000000E+00  0.00000000E+00
  0.00000000E+00  0.00000000E+00  0.00000000E+00  0.00000000E+00  0.00000000E+00
  0.00000000E+00
Integer atomic weights                     I   N=          21
          12          16          14          12          12          16
          14          12          12          12          12          16
          14          12          12          12          12           1
           1           1           1
Real atomic weights                        R   N=          21
  1.20000000E+01  1.59949146E+01  1.40030740E+01  1.20000000E+01  1.20000000E+01
  1.59949146E+01  1.40030740E+01  1.20000000E+01  1.20000000E+01  1.20000000E+01
  1.20000000E+01  1.59949146E+01  1.40030740E+01  1.20000000E+01  1.20000000E+01
  1.20000000E+01  1.20000000E+01  1.00782504E+00  1.00782504E+00  1.00782504E+00
  1.00782504E+00
Atom fragment info                         I   N=          21
           0           0           0           0           0           0
           0           0           0           0           0           0
           0           0           0           0           0           0
           0           0           0
Atom residue num                           I   N=          21
           0           0           0           0           0           0
           0           0           0           0           0           0
           0           0           0           0           0           0
           0           0           0
Nuclear spins                              I   N=          21
           0           0           2           0           0           0
           2           0           0           0           0           0
           2           0           0           0           0           1
           1           1           1
Nuclear ZEff                               R   N=          21
 -3.90000000E+00 -6.00000000E+00 -4.90000000E+00 -3.90000000E+00 -3.90000000E+00
 -6.00000000E+00 -4.90000000E+00 -3.90000000E+00 -3.90000000E+00 -3.90000000E+00
 -3.90000000E+00 -6.00000000E+00 -4.90000000E+00 -3.90000000E+00 -3.90000000E+00
 -3.90000000E+00 -3.90000000E+00 -1.00000000E+00 -1.00000000E+00 -1.00000000E+00
 -1.00000000E+00
Nuclear ZNuc                               R   N=          21
  6.00000000E+00  8.00000000E+00  7.00000000E+00  6.00000000E+00  6.00000000E+00
  8.00000000E+00  7.00000000E+00  6.00000000E+00  6.00000000E+00  6.00000000E+00
  6.00000000E+00  8.00000000E+00  7.00000000E+00  6.00000000E+00  6.00000000E+00
  6.00000000E+00  6.00000000E+00  1.00000000E+00  1.00000000E+00  1.00000000E+00
  1.00000000E+00
Nuclear QMom                               R   N=          21
  0.00000000E+00  0.00000000E+00  2.04400000E+00  0.00000000E+00  0.00000000E+00
  0.00000000E+00  2.04400000E+00  0.00000000E+00  0.00000000E+00  0.00000000E+00
  0.00000000E+00  0.00000000E+00  2.04400000E+00  0.00000000E+00  0.00000000E+00
  0.00000000E+00  0.00000000E+00  0.00000000E+00  0.00000000E+00  0.00000000E+00
  0.00000000E+00
Nuclear GFac                               R   N=          21
  0.00000000E+00  0.00000000E+00  4.03761000E-01  0.00000000E+00  0.00000000E+00
  0.00000000E+00  4.03761000E-01  0.00000000E+00  0.00000000E+00  0.00000000E+00
  0.00000000E+00  0.00000000E+00  4.03761000E-01  0.00000000E+00  0.00000000E+00
  0.00000000E+00  0.00000000E+00  2.79284600E+00  2.79284600E+00  2.79284600E+00
  2.79284600E+00
MicOpt                                     I   N=          21
          -1          -1          -1          -1          -1          -1
          -1          -1          -1          -1          -1          -1
          -1          -1          -1          -1          -1          -1
          -1          -1          -1
Number of residues                         I                0
Number of secondary structures             I                0
Number of contracted shells                I               21
Number of primitive shells                 I              126
Pure/Cartesian d shells                    I                0
Pure/Cartesian f shells                    I                0
Highest angular momentum                   I                1
Largest degree of contraction              I                6
Shell types                                I   N=          21
          -1          -1          -1          -1          -1          -1
          -1          -1          -1          -1          -1          -1
          -1          -1          -1          -1          -1           0
           0           0           0
Number of primitives per shell             I   N=          21
           6           6           6           6           6           6
           6           6           6           6           6           6
           6           6           6           6           6           6
           6           6           6
Shell to atom map                          I   N=          21
           1           2           3           4           5           6
           7           8           9          10          11          12
          13          14          15          16          17          18
          19          20          21
Primitive exponents                        R   N=         126
  1.14476344E+01  3.29633588E+00  1.29653143E+00  5.92558930E-01  2.94896438E-01
  1.51447622E-01  8.02643074E+01  2.31120341E+01  9.09054165E+00  4.15468650E+00
  2.06764625E+00  1.06186467E+00  1.54719623E+01  4.45513742E+00  1.75231709E+00
  8.00868468E-01  3.98565014E-01  2.04687870E-01  1.14476344E+01  3.29633588E+00
  1.29653143E+00  5.92558930E-01  2.94896438E-01  1.51447622E-01  1.14476344E+01
  3.29633588E+00  1.29653143E+00  5.92558930E-01  2.94896438E-01  1.51447622E-01
  8.02643074E+01  2.31120341E+01  9.09054165E+00  4.15468650E+00  2.06764625E+00
  1.06186467E+00  1.54719623E+01  4.45513742E+00  1.75231709E+00  8.00868468E-01
  3.98565014E-01  2.04687870E-01  1.14476344E+01  3.29633588E+00  1.29653143E+00
  5.92558930E-01  2.94896438E-01  1.51447622E-01  1.14476344E+01  3.29633588E+00
  1.29653143E+00  5.92558930E-01  2.94896438E-01  1.51447622E-01  1.14476344E+01
  3.29633588E+00  1.29653143E+00  5.92558930E-01  2.94896438E-01  1.51447622E-01
  1.14476344E+01  3.29633588E+00  1.29653143E+00  5.92558930E-01  2.94896438E-01
  1.51447622E-01  8.02643074E+01  2.31120341E+01  9.09054165E+00  4.15468650E+00
  2.06764625E+00  1.06186467E+00  1.54719623E+01  4.45513742E+00  1.75231709E+00
  8.00868468E-01  3.98565014E-01  2.04687870E-01  1.14476344E+01  3.29633588E+00
  1.29653143E+00  5.92558930E-01  2.94896438E-01  1.51447622E-01  1.14476344E+01
  3.29633588E+00  1.29653143E+00  5.92558930E-01  2.94896438E-01  1.51447622E-01
  1.14476344E+01  3.29633588E+00  1.29653143E+00  5.92558930E-01  2.94896438E-01
  1.51447622E-01  1.14476344E+01  3.29633588E+00  1.29653143E+00  5.92558930E-01
  2.94896438E-01  1.51447622E-01  4.39461478E+00  1.26542531E+00  4.97723458E-01
  2.27476537E-01  1.13207340E-01  5.81389949E-02  4.39461478E+00  1.26542531E+00
  4.97723458E-01  2.27476537E-01  1.13207340E-01  5.81389949E-02  4.39461478E+00
  1.26542531E+00  4.97723458E-01  2.27476537E-01  1.13207340E-01  5.81389949E-02
  4.39461478E+00  1.26542531E+00  4.97723458E-01  2.27476537E-01  1.13207340E-01
  5.81389949E-02
Contraction coefficients                   R   N=         126
 -9.73739553E-03 -7.26587678E-02 -1.71615520E-01  1.28977624E-01  7.28861451E-01
  3.01331742E-01 -9.73739553E-03 -7.26587678E-02 -1.71615520E-01  1.28977624E-01
  7.28861451E-01  3.01331742E-01 -9.73739553E-03 -7.26587678E-02 -1.71615520E-01
  1.28977624E-01  7.28861451E-01  3.01331742E-01 -9.73739553E-03 -7.26587678E-02
 -1.71615520E-01  1.28977624E-01  7.28861451E-01  3.01331742E-01 -9.73739553E-03
 -7.26587678E-02 -1.71615520E-01  1.28977624E-01  7.28861451E-01  3.01331742E-01
 -9.73739553E-03 -7.26587678E-02 -1.71615520E-01  1.28977624E-01  7.28861451E-01
  3.01331742E-01 -9.73739553E-03 -7.26587678E-02 -1.71615520E-01  1.28977624E-01
  7.28861451E-01  3.01331742E-01 -9.73739553E-03 -7.26587678E-02 -1.71615520E-01
  1.28977624E-01  7.28861451E-01  3.01331742E-01 -9.73739553E-03 -7.26587678E-02
 -1.71615520E-01  1.28977624E-01  7.28861451E-01  3.01331742E-01 -9.73739553E-03
 -7.26587678E-02 -1.71615520E-01  1.28977624E-01  7.28861451E-01  3.01331742E-01
 -9.73739553E-03 -7.26587678E-02 -1.71615520E-01  1.28977624E-01  7.28861451E-01
  3.01331742E-01 -9.73739553E-03 -7.26587678E-02 -1.71615520E-01  1.28977624E-01
  7.28861451E-01  3.01331742E-01 -9.73739553E-03 -7.26587678E-02 -1.71615520E-01
  1.28977624E-01  7.28861451E-01  3.01331742E-01 -9.73739553E-03 -7.26587678E-02
 -1.71615520E-01  1.28977624E-01  7.28861451E-01  3.01331742E-01 -9.73739553E-03
 -7.26587678E-02 -1.71615520E-01  1.28977624E-01  7.28861451E-01  3.01331742E-01
 -9.73739553E-03 -7.26587678E-02 -1.71615520E-01  1.28977624E-01  7.28861451E-01
  3.01331742E-01 -9.73739553E-03 -7.26587678E-02 -1.71615520E-01  1.28977624E-01
  7.28861451E-01  3.01331742E-01 -9.73739553E-03 -7.26587678E-02 -1.71615520E-01
  1.28977624E-01  7.28861451E-01  3.01331742E-01 -9.73739553E-03 -7.26587678E-02
 -1.71615520E-01  1.28977624E-01  7.28861451E-01  3.01331742E-01 -9.73739553E-03
 -7.26587678E-02 -1.71615520E-01  1.28977624E-01  7.28861451E-01  3.01331742E-01
 -9.73739553E-03 -7.26587678E-02 -1.71615520E-01  1.28977624E-01  7.28861451E-01
  3.01331742E-01
P(S=P) Contraction coefficients            R   N=         126
 -8.10494336E-03 -1.71547892E-02  7.36978576E-02  3.96514999E-01  4.97808488E-01
  1.17482582E-01 -8.10494336E-03 -1.71547892E-02  7.36978576E-02  3.96514999E-01
  4.97808488E-01  1.17482582E-01 -8.10494336E-03 -1.71547892E-02  7.36978576E-02
  3.96514999E-01  4.97808488E-01  1.17482582E-01 -8.10494336E-03 -1.71547892E-02
  7.36978576E-02  3.96514999E-01  4.97808488E-01  1.17482582E-01 -8.10494336E-03
 -1.71547892E-02  7.36978576E-02  3.96514999E-01  4.97808488E-01  1.17482582E-01
 -8.10494336E-03 -1.71547892E-02  7.36978576E-02  3.96514999E-01  4.97808488E-01
  1.17482582E-01 -8.10494336E-03 -1.71547892E-02  7.36978576E-02  3.96514999E-01
  4.97808488E-01  1.17482582E-01 -8.10494336E-03 -1.71547892E-02  7.36978576E-02
  3.96514999E-01  4.97808488E-01  1.17482582E-01 -8.10494336E-03 -1.71547892E-02
  7.36978576E-02  3.96514999E-01  4.97808488E-01  1.17482582E-01 -8.10494336E-03
 -1.71547892E-02  7.36978576E-02  3.96514999E-01  4.97808488E-01  1.17482582E-01
 -8.10494336E-03 -1.71547892E-02  7.36978576E-02  3.96514999E-01  4.97808488E-01
  1.17482582E-01 -8.10494336E-03 -1.71547892E-02  7.36978576E-02  3.96514999E-01
  4.97808488E-01  1.17482582E-01 -8.10494336E-03 -1.71547892E-02  7.36978576E-02
  3.96514999E-01  4.97808488E-01  1.17482582E-01 -8.10494336E-03 -1.71547892E-02
  7.36978576E-02  3.96514999E-01  4.97808488E-01  1.17482582E-01 -8.10494336E-03
 -1.71547892E-02  7.36978576E-02  3.96514999E-01  4.97808488E-01  1.17482582E-01
 -8.10494336E-03 -1.71547892E-02  7.36978576E-02  3.96514999E-01  4.97808488E-01
  1.17482582E-01 -8.10494336E-03 -1.71547892E-02  7.36978576E-02  3.96514999E-01
  4.97808488E-01  1.17482582E-01  0.00000000E+00  0.00000000E+00  0.00000000E+00
  0.00000000E+00  0.00000000E+00  0.00000000E+00  0.00000000E+00  0.00000000E+00
  0.00000000E+00  0.00000000E+00  0.00000000E+00  0.00000000E+00  0.00000000E+00
  0.00000000E+00  0.00000000E+00  0.00000000E+00  0.00000000E+00  0.00000000E+00
  0.00000000E+00  0.00000000E+00  0.00000000E+00  0.00000000E+00  0.00000000E+00
  0.00000000E+00
Coordinates of each shell                  R   N=          63
 -8.23353672E+00 -1.27178568E+00  4.89061121E+00 -7.95952644E+00 -3.53378785E+00
  4.70919750E+00 -6.38916403E+00  2.36215766E-01  5.58036125E+00 -3.89661527E+00
 -7.36993189E-01  6.18696333E+00 -3.09159194E+00  3.30702072E-01  8.69274017E+00
 -3.29568236E+00  2.56246862E+00  9.18784842E+00 -2.06925011E+00 -1.32280829E+00
  1.02328670E+01 -1.08092334E+00 -5.87704825E-01  1.26025835E+01 -1.87649804E+00
 -8.50376756E-02  4.15172830E+00  7.36993189E-01 -9.22186349E-01  4.98887697E+00
  1.58736994E+00 -1.61382611E+00  1.28350198E+01  1.94074873E+00 -3.82102622E+00
  1.26989596E+01  3.42040429E+00  3.77945225E-03  1.32715466E+01  6.03011606E+00
 -8.10692507E-01  1.34189452E+01 -2.66640356E+00 -1.72531995E+00  1.47341946E+01
 -1.37383089E+00 -1.21887335E+00  1.72399714E+01 -5.29123315E+00 -6.59514417E-01
  1.47190768E+01 -1.00259933E+01 -3.80180544E-01  4.60661846E+00 -2.39910254E+00
 -9.22562272E-01  2.38708976E+00  6.99794047E+00  1.12773280E-01  1.49352034E+01
  6.91778422E+00 -3.85133951E-01  1.16527467E+01
Num ILSW                                   I              100
ILSW                                       I   N=         100
           0           0           0           0           2           0
           0           0           0           0           0          -1
           5           0           0           0           0           0
           0           0           0           0           0           0
           1           1           0           0           0           0
           0           0      100000           0          -1           0
           0           0           0           0           0           0
           0           0           0          40           0           0
           0 -2000000000           1           0           0           0
           0           0           4          52           0           0
           0           1           0           0           0           0
           0           0           0          21           0           1
           0           0           0           0           0           0
           0           0           0           0           0           0
           0           0           0           0           0           0
           0           0           0           0           0           0
           0           0           0           0
Num RLSW                                   I               52
RLSW                                       R   N=          52
  1.00000000E+00  1.00000000E+00  1.00000000E+00  1.00000000E+00  1.00000000E+00
  0.00000000E+00  0.00000000E+00  1.00000000E+00  0.00000000E+00  0.00000000E+00
  0.00000000E+00  0.00000000E+00  1.00000000E+00  0.00000000E+00  0.00000000E+00
  0.00000000E+00  0.00000000E+00  1.00000000E+00  0.00000000E+00  0.00000000E+00
  0.00000000E+00  0.00000000E+00  1.00000000E+00  0.00000000E+00  0.00000000E+00
  0.00000000E+00  0.00000000E+00  1.00000000E+00  0.00000000E+00  0.00000000E+00
  0.00000000E+00  0.00000000E+00  1.00000000E+00  0.00000000E+00  0.00000000E+00
  0.00000000E+00  0.00000000E+00  0.00000000E+00  1.00000000E+00  1.00000000E+00
  0.00000000E+00  1.00000000E+00  0.00000000E+00  0.00000000E+00  0.00000000E+00
  0.00000000E+00  0.00000000E+00  0.00000000E+00  0.00000000E+00  0.00000000E+00
  0.00000000E+00  0.00000000E+00
MxBond                                     I                3
NBond                                      I   N=          21
           3           1           2           3           3           1
           2           3           3           1           3           1
           2           3           3           1           1           1
           1           1           1
IBond                                      I   N=          63
           2           3          18           1           0           0
           1           4           0           3           5           9
           4           6           7           5           0           0
           5           8           0           7          11          15
           4          10          19           9           0           0
           8          12          13          11           0           0
          11          14           0          13          20          21
           8          16          17          15           0           0
          15           0           0           1           0           0
           9           0           0          14           0           0
          14           0           0
RBond                                      R   N=          63
  2.00000000E+00  1.50000000E+00  1.00000000E+00  2.00000000E+00  0.00000000E+00
  0.00000000E+00  1.50000000E+00  1.00000000E+00  0.00000000E+00  1.00000000E+00
  1.00000000E+00  1.00000000E+00  1.00000000E+00  2.00000000E+00  1.50000000E+00
  2.00000000E+00  0.00000000E+00  0.00000000E+00  1.50000000E+00  1.00000000E+00
  0.00000000E+00  1.00000000E+00  1.00000000E+00  1.00000000E+00  1.00000000E+00
  1.00000000E+00  1.00000000E+00  1.00000000E+00  0.00000000E+00  0.00000000E+00
  1.00000000E+00  2.00000000E+00  1.50000000E+00  2.00000000E+00  0.00000000E+00
  0.00000000E+00  1.50000000E+00  1.00000000E+00  0.00000000E+00  1.00000000E+00
  1.00000000E+00  1.00000000E+00  1.00000000E+00  1.00000000E+00  1.00000000E+00
  1.00000000E+00  0.00000000E+00  0.00000000E+00  1.00000000E+00  0.00000000E+00
  0.00000000E+00  1.00000000E+00  0.00000000E+00  0.00000000E+00  1.00000000E+00
  0.00000000E+00  0.00000000E+00  1.00000000E+00  0.00000000E+00  0.00000000E+00
  1.00000000E+00  0.00000000E+00  0.00000000E+00
Virial Ratio                               R      1.018730984173518E+00
SCF Energy                                 R      2.922096575830210E+00
Total Energy                               R      2.922096575830210E+00
RMS Density                                R      9.335133089514190E-09
Job Status                                 I                1
Nuclear derivative order                   I                0
External E-field                           R   N=          35
  0.00000000E+00  0.00000000E+00  0.00000000E+00  0.00000000E+00  0.00000000E+00
  0.00000000E+00  0.00000000E+00  0.00000000E+00  0.00000000E+00  0.00000000E+00
  0.00000000E+00  0.00000000E+00  0.00000000E+00  0.00000000E+00  0.00000000E+00
  0.00000000E+00  0.00000000E+00  0.00000000E+00  0.00000000E+00  0.00000000E+00
  0.00000000E+00  0.00000000E+00  0.00000000E+00  0.00000000E+00  0.00000000E+00
  0.00000000E+00  0.00000000E+00  0.00000000E+00  0.00000000E+00  0.00000000E+00
  0.00000000E+00  0.00000000E+00  0.00000000E+00  0.00000000E+00  0.00000000E+00
IOpCl                                      I                0
IROHF                                      I                0
Alpha Orbital Energies                     R   N=          72
 -2.13593647E+00 -2.08685610E+00 -2.05977595E+00 -2.00832537E+00 -1.97766204E+00
 -1.96492548E+00 -1.89594585E+00 -1.86042360E+00 -1.79588473E+00 -1.77324700E+00
 -1.71123046E+00 -1.64861086E+00 -1.60781651E+00 -1.57984618E+00 -1.55019542E+00
 -1.51852349E+00 -1.47858372E+00 -1.47774702E+00 -1.46544020E+00 -1.45002082E+00
 -1.44250986E+00 -1.43245642E+00 -1.41748697E+00 -1.38053913E+00 -1.37291116E+00
 -1.36692703E+00 -1.33522697E+00 -1.32124668E+00 -1.29845490E+00 -1.28921622E+00
 -1.27647769E+00 -1.24908932E+00 -1.23087676E+00 -1.22438738E+00 -1.22144713E+00
 -1.20521563E+00 -1.18669021E+00 -1.17794701E+00 -1.01093516E+00 -9.96331754E-01
 -9.16671911E-01 -8.98238544E-01 -8.81783359E-01 -8.75605808E-01 -8.40394011E-01
 -8.33962120E-01 -8.28928109E-01 -8.19284190E-01 -8.13537195E-01 -8.05845981E-01
 -8.00748999E-01 -7.97676255E-01 -7.90668879E-01 -7.79590165E-01 -7.75185174E-01
 -7.65106373E-01 -7.58602980E-01 -7.50284263E-01 -7.32415692E-01 -7.25969160E-01
 -7.18790671E-01 -7.16489031E-01 -7.04661182E-01 -6.97046293E-01 -6.96376058E-01
 -6.85162701E-01 -6.72073484E-01 -6.69841185E-01 -6.62811819E-01 -6.47585171E-01
 -6.40590526E-01 -5.91769433E-01
Alpha MO coefficients                      R   N=        5184
 -1.76638072E-03 -8.20004074E-04  2.94695280E-04 -2.25117292E-04 -1.49221073E-03
 -1.13042307E-04 -8.71368252E-04 -1.55163598E-04 -2.79618504E-03 -5.94978768E-04
  9.25744188E-04 -1.37944354E-04 -2.18917981E-03  1.20935979E-03 -5.42815716E-04
  5.59789348E-04  6.38751987E-03  6.91425365E-03 -3.23443159E-03  8.14156879E-03
  6.24128506E-04  1.49572716E-03 -2.02472629E-03  1.10823242E-03  4.85580625E-02
  2.34828615E-02  2.54210685E-03  2.48671404E-02  1.06782780E-01  7.07944369E-02
 -5.32733770E-02 -1.51347575E-03 -7.03773004E-04  4.72579260E-04  7.15713263E-05
 -8.44874047E-05  1.51474299E-04  9.80919664E-05 -5.29960758E-05  4.68709327E-04
  4.97839113E-01  1.10741462E-01 -2.46713243E-01 -7.42634502E-03  6.62132298E-01
 -2.82538877E-02  3.02811663E-01  1.93455087E-02  2.76473753E-01 -4.33726114E-02
 -1.57099037E-01 -2.71809516E-02  1.02750434E-01 -7.71037239E-02 -1.80871016E-03
 -1.40258887E-02  2.83372426E-02  2.95148110E-02  1.11048713E-03 -1.62763990E-02
  1.18029040E-02  4.21819956E-03 -1.92889918E-03 -1.23567621E-02 -3.47196104E-04
  2.63070952E-03 -3.95778320E-04 -1.36632655E-03 -3.93658900E-04 -5.00806749E-04
  2.27150832E-02  3.84392218E-02  4.92933308E-01  1.34193217E-01 -2.17315871E-01
  1.57476145E-02  6.36279002E-01 -5.45285497E-03  2.90248894E-01  3.36078131E-02
  3.40915808E-01 -4.52223352E-02 -1.73825916E-01 -3.37735676E-02  1.40244040E-01
 -9.08668579E-02  1.07647186E-02 -2.45382802E-02  5.18030074E-02 -1.55351693E-02
  2.69143814E-04 -1.77419809E-02  2.70706080E-02 -1.49178913E-03 -2.00827397E-02
 -7.88667778E-03  1.92572181E-02 -6.70977546E-03  8.60411637E-03 -7.54196930E-03
  3.41392652E-03 -1.97454964E-03  3.04205844E-04 -3.69702651E-03  3.92495693E-02
 -2.64937218E-02 -8.47209300E-03  8.67464889E-03  5.87844148E-03 -7.00105535E-03
  5.58482150E-04 -7.17262061E-04  1.41829247E-03 -2.85369569E-05 -8.22368290E-04
 -4.06595378E-04  2.25064232E-03 -1.00150288E-04  8.94957182E-04 -1.88052675E-05
  5.03915252E-04 -6.14820569E-05 -3.46128161E-04 -1.09904132E-04  2.16517384E-04
 -1.59790761E-04 -1.12090431E-05 -4.48551469E-05  3.37834205E-04 -1.04487087E-04
  2.80699971E-04 -7.59663861E-04 -1.71917772E-04  5.11003085E-06  2.45257360E-05
  2.75840246E-05  3.10556684E-04  2.11633932E-04  1.92331783E-05 -3.22863843E-04
  1.19976723E-01  3.34257521E-02  4.31004598E-05  9.25469399E-05 -3.93473220E-02
  3.83287356E-03  3.51227362E-02  7.60026126E-03 -7.97681193E-02  4.62146799E-03
 -2.91569400E-02 -1.33994087E-03  4.34589408E-02  4.26178553E-02  2.72397730E-03
  2.57509319E-02  1.47542555E-01  3.08632843E-02  5.59722914E-02  8.68510182E-02
  5.30022458E-01  4.36996918E-02  1.20728671E-01  1.27990676E-01  4.84842771E-01
  3.83453084E-02 -2.73734485E-01 -3.61943679E-02  4.63795092E-01 -4.28505425E-02
  1.94010012E-01 -2.38683933E-02  1.89543910E-01 -5.65414046E-02 -6.65263791E-03
 -1.17185357E-01  5.12713263E-02 -1.24332530E-02 -2.24239143E-03  3.67045947E-02
  2.23716069E-02 -1.74226455E-02  4.54350282E-03  6.18098850E-03  1.58466910E-02
 -5.32935917E-02  2.95274524E-02 -1.79822595E-02 -4.35751607E-02 -1.16498866E-02
 -7.18908936E-03 -5.63032764E-03 -2.01777890E-02 -1.30565760E-02  1.10180236E-02
 -2.92741626E-03 -1.72071801E-02  8.52474796E-03 -1.41358446E-03  9.97405319E-04
  4.33198979E-02  8.02908330E-03  1.68793006E-02 -3.93728648E-02  3.21231442E-03
 -1.17583982E-03  9.15665245E-04 -6.59370851E-03  1.83012249E-02  1.40642256E-02
 -1.05378723E-03 -9.96762450E-03 -1.15254661E-02  1.90566386E-02 -4.98527350E-03
 -6.48189882E-03  1.94721072E-04 -4.01780156E-04 -1.02285400E-03 -2.56756735E-04
  1.83276430E-03 -1.78985802E-04  4.30336886E-04 -9.82016145E-06 -1.58281881E-03
 -4.29728935E-04  4.47841570E-04 -1.96810823E-04 -2.38198910E-03  2.08386400E-05
  1.21846232E-04 -6.94051622E-04 -8.44000703E-04  8.27590200E-04  5.28610273E-03
  4.57683572E-04  5.92493756E-03  8.93598740E-04 -1.26488434E-03 -4.00911217E-04
 -1.01134288E-02  4.28178460E-03  5.96471672E-03 -7.31991094E-04  4.19083292E-02
  5.24033600E-02  2.32413097E-02  1.10751852E-02 -9.19090026E-04  2.36304467E-04
  2.75229175E-04 -2.78651560E-04 -2.79288174E-04  3.42700467E-04  2.76976901E-05
  9.83800709E-05  1.78979169E-01  1.74937555E-01  3.51084922E-01  5.26611981E-02
 -4.26094973E-01  6.87427574E-02 -2.21658740E-02  5.70217349E-03  6.55218134E-01
  1.11369409E-02 -1.78805786E-01 -3.42967091E-02  3.17466876E-01 -1.62835854E-01
  4.68562294E-02 -3.23485968E-02  1.79235599E-04  6.24750860E-03  7.21536324E-03
  2.51361687E-03  5.54360944E-03  2.87302559E-03  2.22525700E-03 -3.98750803E-03
 -1.91047403E-03 -2.73604169E-04  1.18434702E-03  7.37339710E-04  6.40821435E-05
 -6.14220933E-04  9.13146938E-02  1.32256335E-01  8.28442030E-02  1.35283882E-01
  2.72996525E-01  6.92252652E-02 -4.08288472E-01  4.97558006E-02 -5.29590052E-02
  9.82793881E-03  5.17437738E-01  4.49043565E-02 -1.26651011E-01 -9.62946995E-03
  3.10061818E-01 -1.13357151E-01  7.46683371E-02 -5.89143388E-02  3.98831874E-02
 -9.39779023E-02  1.16764921E-01 -1.43652684E-01  1.62068932E-01 -1.81348814E-02
 -4.38858168E-02 -5.39925928E-02 -3.12216092E-01 -2.20940468E-02 -7.01673550E-02
 -6.71103416E-02 -2.15923225E-01  3.05461466E-02  3.39622644E-02  7.45349304E-02
  1.65823425E-01 -5.93957653E-02 -2.75323195E-02  2.74205564E-02  4.68730529E-02
 -3.61483007E-02  6.21840592E-03 -8.15062510E-03 -4.62971677E-02  7.82590888E-02
 -4.18240560E-02  1.57698178E-02  5.98561746E-02  2.26350313E-02  1.76348755E-06
  5.04932538E-03  2.68423783E-02  3.32938329E-02 -1.19429708E-02  4.37482604E-03
  3.68503140E-02 -1.37497456E-02  4.63069411E-03 -2.63170207E-03 -7.59048842E-02
 -2.03957357E-02 -2.27918925E-02  4.41123741E-02 -1.79357790E-02  2.97728109E-03
 -6.04111253E-04  1.66519094E-02 -2.68603836E-02 -2.05104828E-02  3.18088181E-03
  8.17486809E-03  2.86300944E-02  1.26326880E-01  1.16236011E-02  1.56647869E-02
 -6.43101072E-02 -7.76786226E-02 -1.51383520E-01 -3.86632691E-02  2.19465013E-01
 -2.77211027E-02  2.10048779E-02 -6.40095321E-03 -2.73947626E-01  9.32766971E-04
  8.22053696E-02  1.77574706E-02 -1.69348926E-01  4.11696358E-02  9.79743424E-03
  2.22593168E-02  2.08461817E-02 -7.54727708E-02  3.63032824E-01 -1.23790205E-02
  5.54694092E-01  2.64793176E-03 -1.35897016E-01 -5.20162669E-02 -4.31050197E-01
 -1.02790541E-02 -6.74009540E-02 -3.87527931E-02 -2.60859331E-01  3.24799518E-02