Atom number=14                                                          
SP        RPM6                                                        ZDO                 
Number of atoms                            I               14
Info1-9                                    I   N=           9
          81          80           0           0           0         111
           1           8        2302
Full Title                                 C   N=           2
Atom number=14          
Route                                      C   N=           9
#p int=acc2e=12 pm6 charge nosymm int=acc2e=12 scf=(noincfoc
k,novaracc,fermi,maxcycle=128,ndamp=64,xqc)     
Charge                                     I                2
Multiplicity                               I                1
Number of electrons                        I               48
Number of alpha electrons                  I               24
Number of beta electrons                   I               24
Number of basis functions                  I               44
Number of independent functions            I               44
Number of point charges in /Mol/           I                0
Number of translation vectors              I                0
Atomic numbers                             I   N=          14
           6           8           7           6           6           8
           7           6           6           6           1           1
           1           1
Nuclear charges                            R   N=          14
  4.00000000E+00  6.00000000E+00  5.00000000E+00  4.00000000E+00  4.00000000E+00
  6.00000000E+00  5.00000000E+00  4.00000000E+00  4.00000000E+00  4.00000000E+00
  1.00000000E+00  1.00000000E+00  1.00000000E+00  1.00000000E+00
Current cartesian coordinates              R   N=          42
 -3.09159194E+00  3.30702072E-01  8.69274017E+00 -3.29568236E+00  2.56246862E+00
  9.18784842E+00 -2.06925011E+00 -1.32280829E+00  1.02328670E+01 -1.08092334E+00
 -5.87704825E-01  1.26025835E+01  1.58736994E+00 -1.61382611E+00  1.28350198E+01
  1.94074873E+00 -3.82102622E+00  1.26989596E+01  3.42040429E+00  3.77945225E-03
  1.32715466E+01  6.03011606E+00 -8.10692507E-01  1.34189452E+01 -2.66640356E+00
 -1.72531995E+00  1.47341946E+01 -1.37383089E+00 -1.21887335E+00  1.72399714E+01
 -3.66469976E+00 -4.29405718E-01  6.90884117E+00 -4.53983101E+00 -9.64619393E-01
  1.47234045E+01  6.99794047E+00  1.12773280E-01  1.49352034E+01  6.91778422E+00
 -3.85133951E-01  1.16527467E+01
Number of symbols in /Mol/                 I                0
Int Atom Types                             I   N=          14
           0           0           0           0           0           0
           0           0           0           0           0           0
           0           0
Force Field                                I                0
Atom Types                                 C   N=          14
                                                            
                                                            
                                                
MM charges                                 R   N=          14
  0.00000000E+00  0.00000000E+00  0.00000000E+00  0.00000000E+00  0.00000000E+00
  0.00000000E+00  0.00000000E+00  0.00000000E+00  0.00000000E+00  0.00000000E+00
  0.00000000E+00  0.00000000E+00  0.00000000E+00  0.00000000E+00
Integer atomic weights                     I   N=          14
          12          16          14          12          12          16
          14          12          12          12           1           1
           1           1
Real atomic weights                        R   N=          14
  1.20000000E+01  1.59949146E+01  1.40030740E+01  1.20000000E+01  1.20000000E+01
  1.59949146E+01  1.40030740E+01  1.20000000E+01  1.20000000E+01  1.20000000E+01
  1.00782504E+00  1.00782504E+00  1.00782504E+00  1.00782504E+00
Atom fragment info                         I   N=          14
           0           0           0           0           0           0
           0           0           0           0           0           0
           0           0
Atom residue num                           I   N=          14
           0           0           0           0           0           0
           0           0           0           0           0           0
           0           0
Nuclear spins                              I   N=          14
           0           0           2           0           0           0
           2           0           0           0           1           1
           1           1
Nuclear ZEff                               R   N=          14
 -3.90000000E+00 -6.00000000E+00 -4.90000000E+00 -3.90000000E+00 -3.90000000E+00
 -6.00000000E+00 -4.90000000E+00 -3.90000000E+00 -3.90000000E+00 -3.90000000E+00
 -1.00000000E+00 -1.00000000E+00 -1.00000000E+00 -1.00000000E+00
Nuclear ZNuc                               R   N=          14
  6.00000000E+00  8.00000000E+00  7.00000000E+00  6.00000000E+00  6.00000000E+00
  8.00000000E+00  7.00000000E+00  6.00000000E+00  6.00000000E+00  6.00000000E+00
  1.00000000E+00  1.00000000E+00  1.00000000E+00  1.00000000E+00
Nuclear QMom                               R   N=          14
  0.00000000E+00  0.00000000E+00  2.04400000E+00  0.00000000E+00  0.00000000E+00
  0.00000000E+00  2.04400000E+00  0.00000000E+00  0.00000000E+00  0.00000000E+00
  0.00000000E+00  0.00000000E+00  0.00000000E+00  0.00000000E+00
Nuclear GFac                               R   N=          14
  0.00000000E+00  0.00000000E+00  4.03761000E-01  0.00000000E+00  0.00000000E+00
  0.00000000E+00  4.03761000E-01  0.00000000E+00  0.00000000E+00  0.00000000E+00
  2.79284600E+00  2.79284600E+00  2.79284600E+00  2.79284600E+00
MicOpt                                     I   N=          14
          -1          -1          -1          -1          -1          -1
          -1          -1          -1          -1          -1          -1
          -1          -1
Number of residues                         I                0
Number of secondary structures             I                0
Number of contracted shells                I               14
Number of primitive shells                 I               84
Pure/Cartesian d shells                    I                0
Pure/Cartesian f shells                    I                0
Highest angular momentum                   I                1
Largest degree of contraction              I                6
Shell types                                I   N=          14
          -1          -1          -1          -1          -1          -1
          -1          -1          -1          -1           0           0
           0           0
Number of primitives per shell             I   N=          14
           6           6           6           6           6           6
           6           6           6           6           6           6
           6           6
Shell to atom map                          I   N=          14
           1           2           3           4           5           6
           7           8           9          10          11          12
          13          14
Primitive exponents                        R   N=          84
  1.14476344E+01  3.29633588E+00  1.29653143E+00  5.92558930E-01  2.94896438E-01
  1.51447622E-01  8.02643074E+01  2.31120341E+01  9.09054165E+00  4.15468650E+00
  2.06764625E+00  1.06186467E+00  1.54719623E+01  4.45513742E+00  1.75231709E+00
  8.00868468E-01  3.98565014E-01  2.04687870E-01  1.14476344E+01  3.29633588E+00
  1.29653143E+00  5.92558930E-01  2.94896438E-01  1.51447622E-01  1.14476344E+01
  3.29633588E+00  1.29653143E+00  5.92558930E-01  2.94896438E-01  1.51447622E-01
  8.02643074E+01  2.31120341E+01  9.09054165E+00  4.15468650E+00  2.06764625E+00
  1.06186467E+00  1.54719623E+01  4.45513742E+00  1.75231709E+00  8.00868468E-01
  3.98565014E-01  2.04687870E-01  1.14476344E+01  3.29633588E+00  1.29653143E+00
  5.92558930E-01  2.94896438E-01  1.51447622E-01  1.14476344E+01  3.29633588E+00
  1.29653143E+00  5.92558930E-01  2.94896438E-01  1.51447622E-01  1.14476344E+01
  3.29633588E+00  1.29653143E+00  5.92558930E-01  2.94896438E-01  1.51447622E-01
  4.39461478E+00  1.26542531E+00  4.97723458E-01  2.27476537E-01  1.13207340E-01
  5.81389949E-02  4.39461478E+00  1.26542531E+00  4.97723458E-01  2.27476537E-01
  1.13207340E-01  5.81389949E-02  4.39461478E+00  1.26542531E+00  4.97723458E-01
  2.27476537E-01  1.13207340E-01  5.81389949E-02  4.39461478E+00  1.26542531E+00
  4.97723458E-01  2.27476537E-01  1.13207340E-01  5.81389949E-02
Contraction coefficients                   R   N=          84
 -9.73739553E-03 -7.26587678E-02 -1.71615520E-01  1.28977624E-01  7.28861451E-01
  3.01331742E-01 -9.73739553E-03 -7.26587678E-02 -1.71615520E-01  1.28977624E-01
  7.28861451E-01  3.01331742E-01 -9.73739553E-03 -7.26587678E-02 -1.71615520E-01
  1.28977624E-01  7.28861451E-01  3.01331742E-01 -9.73739553E-03 -7.26587678E-02
 -1.71615520E-01  1.28977624E-01  7.28861451E-01  3.01331742E-01 -9.73739553E-03
 -7.26587678E-02 -1.71615520E-01  1.28977624E-01  7.28861451E-01  3.01331742E-01
 -9.73739553E-03 -7.26587678E-02 -1.71615520E-01  1.28977624E-01  7.28861451E-01
  3.01331742E-01 -9.73739553E-03 -7.26587678E-02 -1.71615520E-01  1.28977624E-01
  7.28861451E-01  3.01331742E-01 -9.73739553E-03 -7.26587678E-02 -1.71615520E-01
  1.28977624E-01  7.28861451E-01  3.01331742E-01 -9.73739553E-03 -7.26587678E-02
 -1.71615520E-01  1.28977624E-01  7.28861451E-01  3.01331742E-01 -9.73739553E-03
 -7.26587678E-02 -1.71615520E-01  1.28977624E-01  7.28861451E-01  3.01331742E-01
 -9.73739553E-03 -7.26587678E-02 -1.71615520E-01  1.28977624E-01  7.28861451E-01
  3.01331742E-01 -9.73739553E-03 -7.26587678E-02 -1.71615520E-01  1.28977624E-01
  7.28861451E-01  3.01331742E-01 -9.73739553E-03 -7.26587678E-02 -1.71615520E-01
  1.28977624E-01  7.28861451E-01  3.01331742E-01 -9.73739553E-03 -7.26587678E-02
 -1.71615520E-01  1.28977624E-01  7.28861451E-01  3.01331742E-01
P(S=P) Contraction coefficients            R   N=          84
 -8.10494336E-03 -1.71547892E-02  7.36978576E-02  3.96514999E-01  4.97808488E-01
  1.17482582E-01 -8.10494336E-03 -1.71547892E-02  7.36978576E-02  3.96514999E-01
  4.97808488E-01  1.17482582E-01 -8.10494336E-03 -1.71547892E-02  7.36978576E-02
  3.96514999E-01  4.97808488E-01  1.17482582E-01 -8.10494336E-03 -1.71547892E-02
  7.36978576E-02  3.96514999E-01  4.97808488E-01  1.17482582E-01 -8.10494336E-03
 -1.71547892E-02  7.36978576E-02  3.96514999E-01  4.97808488E-01  1.17482582E-01
 -8.10494336E-03 -1.71547892E-02  7.36978576E-02  3.96514999E-01  4.97808488E-01
  1.17482582E-01 -8.10494336E-03 -1.71547892E-02  7.36978576E-02  3.96514999E-01
  4.97808488E-01  1.17482582E-01 -8.10494336E-03 -1.71547892E-02  7.36978576E-02
  3.96514999E-01  4.97808488E-01  1.17482582E-01 -8.10494336E-03 -1.71547892E-02
  7.36978576E-02  3.96514999E-01  4.97808488E-01  1.17482582E-01 -8.10494336E-03
 -1.71547892E-02  7.36978576E-02  3.96514999E-01  4.97808488E-01  1.17482582E-01
  0.00000000E+00  0.00000000E+00  0.00000000E+00  0.00000000E+00  0.00000000E+00
  0.00000000E+00  0.00000000E+00  0.00000000E+00  0.00000000E+00  0.00000000E+00
  0.00000000E+00  0.00000000E+00  0.00000000E+00  0.00000000E+00  0.00000000E+00
  0.00000000E+00  0.00000000E+00  0.00000000E+00  0.00000000E+00  0.00000000E+00
  0.00000000E+00  0.00000000E+00  0.00000000E+00  0.00000000E+00
Coordinates of each shell                  R   N=          42
 -3.09159194E+00  3.30702072E-01  8.69274017E+00 -3.29568236E+00  2.56246862E+00
  9.18784842E+00 -2.06925011E+00 -1.32280829E+00  1.02328670E+01 -1.08092334E+00
 -5.87704825E-01  1.26025835E+01  1.58736994E+00 -1.61382611E+00  1.28350198E+01
  1.94074873E+00 -3.82102622E+00  1.26989596E+01  3.42040429E+00  3.77945225E-03
  1.32715466E+01  6.03011606E+00 -8.10692507E-01  1.34189452E+01 -2.66640356E+00
 -1.72531995E+00  1.47341946E+01 -1.37383089E+00 -1.21887335E+00  1.72399714E+01
 -3.66469976E+00 -4.29405718E-01  6.90884117E+00 -4.53983101E+00 -9.64619393E-01
  1.47234045E+01  6.99794047E+00  1.12773280E-01  1.49352034E+01  6.91778422E+00
 -3.85133951E-01  1.16527467E+01
Num ILSW                                   I              100
ILSW                                       I   N=         100
           0           0           0           0           2           0
           0           0           0           0           0          -1
           5           0           0           0           0           0
           0           0           0           0           0           0
           1           1           0           0           0           0
           0           0      100000           0          -1           0
           0           0           0           0           0           0
           0           0           0          40           0           0
           0 -2000000000           1           0           0           0
           0           0           4          52           0           0
           0           1           0           0           0           0
           0           0           0          14           0           1
           0           0           0           0           0           0
           0           0           0           0           0           0
           0           0           0           0           0           0
           0           0           0           0           0           0
           0           0           0           0
Num RLSW                                   I               52
RLSW                                       R   N=          52
  1.00000000E+00  1.00000000E+00  1.00000000E+00  1.00000000E+00  1.00000000E+00
  0.00000000E+00  0.00000000E+00  1.00000000E+00  0.00000000E+00  0.00000000E+00
  0.00000000E+00  0.00000000E+00  1.00000000E+00  0.00000000E+00  0.00000000E+00
  0.00000000E+00  0.00000000E+00  1.00000000E+00  0.00000000E+00  0.00000000E+00
  0.00000000E+00  0.00000000E+00  1.00000000E+00  0.00000000E+00  0.00000000E+00
  0.00000000E+00  0.00000000E+00  1.00000000E+00  0.00000000E+00  0.00000000E+00
  0.00000000E+00  0.00000000E+00  1.00000000E+00  0.00000000E+00  0.00000000E+00
  0.00000000E+00  0.00000000E+00  0.00000000E+00  1.00000000E+00  1.00000000E+00
  0.00000000E+00  1.00000000E+00  0.00000000E+00  0.00000000E+00  0.00000000E+00
  0.00000000E+00  0.00000000E+00  0.00000000E+00  0.00000000E+00  0.00000000E+00
  0.00000000E+00  0.00000000E+00
MxBond                                     I                3
NBond                                      I   N=          14
           3           1           2           3           3           1
           2           3           3           1           1           1
           1           1
IBond                                      I   N=          42
           2           3          11           1           0           0
           1           4           0           3           5           9
           4           6           7           5           0           0
           5           8           0           7          13          14
           4          10          12           9           0           0
           1           0           0           9           0           0
           8           0           0           8           0           0
RBond                                      R   N=          42
  2.00000000E+00  1.50000000E+00  1.00000000E+00  2.00000000E+00  0.00000000E+00
  0.00000000E+00  1.50000000E+00  1.00000000E+00  0.00000000E+00  1.00000000E+00
  1.00000000E+00  1.00000000E+00  1.00000000E+00  2.00000000E+00  1.50000000E+00
  2.00000000E+00  0.00000000E+00  0.00000000E+00  1.50000000E+00  1.00000000E+00
  0.00000000E+00  1.00000000E+00  1.00000000E+00  1.00000000E+00  1.00000000E+00
  1.00000000E+00  1.00000000E+00  1.00000000E+00  0.00000000E+00  0.00000000E+00
  1.00000000E+00  0.00000000E+00  0.00000000E+00  1.00000000E+00  0.00000000E+00
  0.00000000E+00  1.00000000E+00  0.00000000E+00  0.00000000E+00  1.00000000E+00
  0.00000000E+00  0.00000000E+00
Virial Ratio                               R      9.939074113785822E-01
SCF Energy                                 R     -5.949007139129208E-01
Total Energy                               R     -5.949007139129208E-01
RMS Density                                R      6.129353985078780E-10
Job Status                                 I                1
Nuclear derivative order                   I                0
External E-field                           R   N=          35
  0.00000000E+00  0.00000000E+00  0.00000000E+00  0.00000000E+00  0.00000000E+00
  0.00000000E+00  0.00000000E+00  0.00000000E+00  0.00000000E+00  0.00000000E+00
  0.00000000E+00  0.00000000E+00  0.00000000E+00  0.00000000E+00  0.00000000E+00
  0.00000000E+00  0.00000000E+00  0.00000000E+00  0.00000000E+00  0.00000000E+00
  0.00000000E+00  0.00000000E+00  0.00000000E+00  0.00000000E+00  0.00000000E+00
  0.00000000E+00  0.00000000E+00  0.00000000E+00  0.00000000E+00  0.00000000E+00
  0.00000000E+00  0.00000000E+00  0.00000000E+00  0.00000000E+00  0.00000000E+00
IOpCl                                      I                0
IROHF                                      I                0
Alpha Orbital Energies                     R   N=          44
 -1.80633206E+00 -1.78883806E+00 -1.70413021E+00 -1.67499692E+00 -1.63613245E+00
 -1.53033195E+00 -1.45468553E+00 -1.38224669E+00 -1.31092179E+00 -1.24878467E+00
 -1.18875960E+00 -1.16363514E+00 -1.15710642E+00 -1.14165958E+00 -1.11822822E+00
 -1.09324540E+00 -1.06446726E+00 -1.05617429E+00 -1.02056499E+00 -9.82969825E-01
 -9.66670190E-01 -9.34644385E-01 -9.12361430E-01 -8.85271590E-01 -7.25738946E-01
 -6.43076539E-01 -6.25577670E-01 -5.72123280E-01 -5.61706343E-01 -5.58592230E-01
 -5.26397622E-01 -5.07529720E-01 -4.97880107E-01 -4.85190062E-01 -4.76926500E-01
 -4.62389465E-01 -4.39382568E-01 -4.09544992E-01 -3.94176738E-01 -3.83561331E-01
 -3.73223726E-01 -3.57707558E-01 -3.39244869E-01 -2.82775024E-01
Alpha MO coefficients                      R   N=        1936
  1.38559269E-01  2.60382729E-02  1.89799926E-02  5.81524828E-02  1.18179566E-01
  1.34197030E-02 -6.91957405E-02 -2.17177139E-03  2.11858684E-01  2.00759785E-02
  6.17698455E-02  4.14436837E-02  2.15299209E-01  5.08565366E-02 -6.83937422E-02
 -3.52963861E-02  5.00463303E-01  6.78979303E-02 -2.12527484E-01 -9.75088138E-03
  5.79664253E-01 -3.87397710E-02  2.96212843E-01  1.88951295E-02  2.67042429E-01
 -5.39435208E-02 -1.43986580E-01 -2.80337926E-02  9.04910054E-02 -6.96520995E-02
 -2.64645028E-03 -1.23146127E-02  8.61627885E-02  3.74514020E-02  1.51813497E-02
 -3.56592277E-02  2.94275965E-02  2.94019312E-07 -2.20899339E-03 -2.54412971E-02
  3.20610855E-02  4.87309044E-02  2.04656151E-02  3.47060430E-02  4.73230533E-01
  4.86628422E-02  1.26553622E-01  1.57449420E-01  4.93524425E-01  4.02678966E-02
 -2.56319745E-01 -2.23393178E-02  4.36364952E-01 -4.77390582E-02  1.91500766E-01
 -1.06664284E-02  1.66369786E-01 -9.08414707E-02  7.65196882E-03 -1.15293789E-01
 -1.42174501E-01 -8.39077938E-02  9.85013160E-02 -1.51485486E-02 -2.29735626E-01
 -1.17969140E-03 -1.03079832E-01 -1.19524707E-02 -1.08224721E-01  5.57052591E-03
  5.81817976E-02  6.80269192E-03 -4.56651114E-02  3.10377535E-02 -1.24891374E-04
  5.00492884E-03  6.11269663E-02 -7.30735892E-03  2.25153243E-02 -3.56079038E-02
  7.84871359E-03 -6.49567938E-03  1.45448653E-03 -7.98567419E-03  1.17120146E-01
  6.21248129E-02 -1.13723255E-02 -1.75086817E-02  7.96161717E-02 -8.40110617E-02
  3.18548675E-01 -5.35460719E-02  5.51534674E-01 -1.12860819E-03 -1.40568917E-01
 -6.05464518E-02 -4.40714511E-01 -2.45671768E-02 -6.49871287E-02 -1.06754515E-01
 -3.57343869E-01  8.14767046E-02  6.91271238E-02  6.47037351E-02 -1.36468397E-02
  1.37620009E-01 -7.22327055E-02  1.53359241E-02  1.34342393E-01  3.45770100E-02
  3.19721570E-02  7.43730679E-03  7.76640860E-02  3.32451371E-02 -3.58184844E-02
 -1.12649953E-03  5.78967214E-02 -2.77018861E-02  4.80503787E-03 -5.23120247E-03
 -2.64713929E-01 -1.26566296E-02 -6.58133153E-02  5.80671760E-02 -9.27069918E-02
  2.68706222E-02  6.94050796E-04  6.09515020E-02  1.72678776E-02 -2.26375583E-01
  1.72074348E-02  2.43985605E-02 -4.09904478E-03  1.75525992E-03  9.58080670E-04
  2.87326368E-04 -2.95217705E-03  7.80658774E-04  1.70320154E-03  5.39635595E-04
 -7.21580449E-03  6.00965256E-03  7.66942971E-03  1.52550743E-03  5.48401677E-02
  5.38807034E-02  2.63505292E-02  1.47773340E-02  1.65421696E-01  1.65626222E-01
  3.69610557E-01  5.42598283E-02 -4.43457735E-01  7.09391762E-02 -3.80656327E-02
  6.61264669E-03  6.50518676E-01 -2.66019348E-03 -1.64998737E-01 -3.72404910E-02
  3.02677473E-01 -1.51385748E-01  4.43918861E-02 -2.93335315E-02  1.25574145E-02
  7.24982091E-03  1.11443454E-02  2.86151838E-03  1.27560705E-02  1.70422787E-03
  2.48287546E-03 -7.66612283E-03 -2.00836805E-03  8.25739419E-03  9.20900156E-02
  1.31073324E-01 -1.48018588E-01 -8.01417143E-02  2.20829900E-01 -5.32640232E-02
  2.73609255E-01 -1.66730982E-02 -6.56514631E-03 -2.50976808E-02 -3.37008938E-01
  3.85833963E-02 -1.02743272E-01  1.19571280E-01  1.56493777E-01 -3.73243122E-02
 -4.42528309E-02  2.13444929E-01  3.25033929E-02 -7.69066374E-02  2.72575313E-02
  3.42143631E-02 -5.00278673E-02 -2.56500483E-02 -3.64565306E-03  1.18263754E-02
 -4.26204194E-02 -3.46444412E-02  1.38071659E-02  8.72100982E-03 -4.66409306E-02
  1.65228173E-02 -6.23697025E-03  5.86698552E-03  5.06580923E-01 -2.71676788E-02
  1.16089254E-01  4.86454598E-02  2.61803884E-01 -7.32552692E-02 -5.08995066E-03
 -1.35473433E-01 -6.30057773E-02  4.92688819E-01 -1.48431069E-02 -2.25004208E-02
 -2.08530210E-01 -2.05220966E-02  1.50575666E-01 -7.59273143E-03  1.54578020E-01
 -5.18879159E-03  4.99667421E-02  1.01267837E-03 -5.99109508E-02  1.71404973E-01
 -6.01587120E-02  2.24496593E-01  3.56565747E-01  1.70183458E-01 -7.45134471E-02
 -3.79567984E-02  2.87039740E-01 -1.94429631E-01  1.76311640E-01 -1.36919334E-02
 -2.07773792E-01 -8.44230757E-02  6.37806406E-02 -2.88418202E-03 -6.93306672E-02
 -2.72720607E-01  9.28570189E-04 -2.63736423E-02 -3.24211718E-01  4.60195672E-02
 -5.31654971E-02  2.53990280E-02 -1.51315731E-01  1.79256962E-01 -3.39105313E-02
 -1.23640698E-01 -1.02065538E-01  5.67581644E-02  2.94577242E-03  2.57595491E-02
 -1.05622660E-01 -3.42436888E-01 -1.26511211E-01 -1.73888921E-01 -2.77173282E-01
 -1.23343157E-02  1.41033309E-01  5.21442177E-02  1.58132634E-01 -4.34254858E-03
  8.78880547E-02  3.36729025E-02  6.47996591E-02  1.40888898E-01 -5.49888748E-02
  3.14617453E-01  2.35596576E-01 -1.17720657E-01 -7.68956596E-02 -1.23863927E-01
 -1.88813026E-01 -1.44485754E-01 -1.26469480E-01 -6.78626293E-02  7.25047616E-02
 -5.05996669E-02 -7.12073051E-02 -2.86422838E-02 -7.11631795E-02  3.32818498E-01
  7.59945056E-02  1.71138623E-02  4.63208278E-01  2.53138070E-02  8.56773854E-02
 -4.23071008E-02 -4.36125040E-02  4.46683047E-02 -5.99009908E-03 -1.54418349E-01
 -1.39457742E-01  2.60272586E-02  2.69964845E-03  3.18755048E-02 -1.64096404E-01
 -1.04396720E-01  2.05073664E-01  2.89789093E-01  1.56550158E-01 -4.24324827E-03
 -5.26036406E-02 -6.58945316E-02 -7.93169092E-02 -1.77331581E-03 -6.12625936E-02
 -4.24134988E-02 -6.20172108E-02 -3.26660297E-02  8.86439971E-03 -1.40556156E-01
  8.30989942E-02  1.07337688E-01 -2.93688298E-02  1.87769032E-01  1.45960825E-02
 -1.72301874E-01 -2.80862698E-02  4.69366322E-02 -2.90639671E-02 -7.86935919E-02
 -2.44842468E-03  2.92401350E-02 -9.30907728E-02  8.55274893E-02  4.54957830E-02
  3.20875948E-02  1.83085616E-01  5.51754284E-02  3.32362032E-02 -1.29528868E-02
  1.33699236E-01  4.04895192E-01 -6.66373223E-03  2.14333719E-01  5.33774007E-01
 -7.74042997E-03 -1.50333237E-02 -1.28541857E-01  1.09593202E-01 -4.59558877E-01
  9.53197728E-02  1.33048843E-01 -2.93969012E-01  8.11915776E-02  3.51444860E-02
  2.19557535E-01  1.82762569E-01  3.25848623E-02  1.58295444E-01  1.37133881E-01
  2.40943796E-01  3.79077479E-02  2.08182887E-02  1.46711540E-01 -1.55453566E-01
 -1.77388230E-01  4.25694856E-02 -1.99209896E-01 -1.72403886E-01  2.54220736E-01
 -1.78177598E-03  8.39562505E-03  1.21449263E-01  1.48375920E-01 -9.29581809E-02
 -5.60972647E-03  1.61078640E-01 -2.83484401E-03 -4.24287900E-02  2.97060355E-03
 -1.83275206E-01 -1.25632100E-01 -2.60010657E-02  2.99337260E-02  1.68647655E-02
  6.52151426E-02 -1.87793652E-02  2.46416517E-01  4.26505121E-01 -3.38978262E-02
 -5.79093133E-03 -3.07261079E-02 -2.59722696E-01 -1.49012471E-01 -1.08266891E-01
 -1.76199316E-01 -9.93702874E-02  1.24468234E-01 -1.44420656E-02  4.94799477E-02
  9.94211063E-02  6.26059385E-02  9.98293900E-02  4.71572169E-02  1.09264047E-01
  1.73385346E-01 -2.57550359E-03 -1.20441059E-01 -1.99335442E-01  3.26129168E-01
  1.63348850E-02 -2.46828003E-01  2.41544559E-01 -1.03902629E-01 -5.71708635E-03
 -1.67864887E-01 -2.09679444E-01 -9.55090385E-02  2.25968790E-01 -9.28058452E-02
 -2.32908045E-01 -9.60505787E-02 -8.35996844E-03 -1.05022759E-01  1.43486908E-01
  1.95306644E-01 -6.63290070E-03 -8.44229773E-02 -1.53653896E-01 -2.24787902E-01
 -8.34443735E-02  3.05983789E-01  2.04867637E-01 -3.93658684E-02 -7.71068003E-03
  5.00648030E-02 -8.86720935E-02  2.15086485E-01  8.25825403E-02  2.23236810E-01
 -1.36394591E-01  9.84643092E-02 -1.71703341E-01  3.60833048E-01  1.97789068E-01
  2.53929853E-02  1.91073718E-01  2.85316511E-01  5.00372243E-02 -3.00788334E-01
  7.22251096E-02 -2.43281240E-01 -6.77293032E-02 -5.54334268E-02  1.79327001E-02
  3.20946349E-01  1.03683945E-01  3.17692548E-02 -6.93573840E-02  2.43068981E-01
 -1.38336285E-01 -4.94978244E-03  1.64878861E-01  2.05002632E-01 -1.44621887E-01
 -9.71019132E-02 -7.82747124E-02  1.06218461E-01  7.81873947E-02  1.15944780E-01
 -2.84256490E-02  2.05179435E-02  9.22051406E-02  1.01944049E-01  4.26647447E-02
 -1.34862061E-01 -1.99828609E-01  1.70383978E-02 -4.11158111E-03 -5.68211023E-02
 -2.36349214E-01 -5.52911091E-02  7.20097473E-02  8.32677692E-02  3.14389145E-02
  1.44003298E-01  1.70432433E-01  3.07010140E-01 -2.36369576E-01  1.58141185E-01
 -2.92164984E-01  1.43998279E-01 -2.69805296E-01 -1.36353276E-02  3.67569080E-01
  2.00269684E-02  1.59995031E-01  6.70867149E-02  2.69161450E-01  8.81143590E-03
 -2.02597287E-02  1.16422954E-02  2.07377750E-01 -5.96000500E-02  2.34299736E-01
  9.76611708E-02 -2.40471818E-01 -7.32104669E-02 -2.02748300E-02 -1.82704256E-01
  5.87963745E-02 -9.98296528E-02  2.32432148E-02  1.62500132E-01 -2.11231160E-03
 -1.03896470E-01 -6.47870930E-02 -2.15809847E-02  1.15347488E-01  3.12862454E-02
  1.48775064E-02 -8.73567803E-04  3.70250057E-02  9.20117811E-03 -2.18029243E-01
  1.10762096E-02  1.23108583E-02  1.69597856E-01  4.91574070E-02 -1.88245531E-01
  1.24003276E-01  4.12368782E-03 -1.64820084E-01 -1.13587645E-01 -2.12993411E-01
 -5.30512669E-02 -4.28446167E-02 -1.11899119E-01  4.08022840E-03  2.80450718E-01
 -3.53510949E-02 -3.25148831E-01 -2.41611530E-02 -7.15957629E-02  7.05660638E-02
  3.60114694E-01 -1.34279265E-01 -7.90783014E-02 -2.52457829E-01  2.35073947E-01
  3.58209733E-01 -3.74273163E-02 -2.45537133E-01 -1.03228767E-01 -2.09706577E-01
 -1.33579104E-01  2.42002526E-02  1.20635327E-01 -1.04440554E-01 -1.59436702E-01
  5.51625580E-02  5.11932302E-02  1.54813034E-02 -6.59464397E-02  6.55939561E-02
  2.34341233E-03  2.89759428E-03  2.88358628E-03  2.25997494E-02 -1.03025647E-01
 -4.98889282E-02  1.80883753E-01 -3.35722647E-02 -6.49217740E-02 -2.00073770E-01
 -1.78844808E-01  2.28957181E-01 -9.81335087E-02  3.08565556E-01 -4.01472282E-02
  1.24105233E-01 -4.79096785E-02 -1.67518227E-01 -9.85557247E-02  2.97697028E-02
 -2.30004860E-02 -1.74823418E-02  1.06737910E-01 -3.82224807E-02  1.34636755E-01
  2.42171815E-01 -1.71302843E-01  2.30357732E-01  1.83380627E-01 -2.64801798E-01
 -1.86747687E-01 -3.11844659E-02 -2.63917574E-01  2.69022172E-02 -2.45785072E-01
 -1.79324877E-02  2.18298582E-01 -3.86749533E-02 -2.68652177E-01  7.98643085E-02
  7.12991876E-02  3.78492598E-02 -6.26015555E-02 -6.37497753E-02 -9.79657082E-03
  2.21083373E-03 -3.79265151E-02  1.46447388E-01 -5.53109531E-02 -7.51405592E-02
  2.99898101E-01 -3.26109026E-03 -9.55594664E-02  4.40901546E-02 -1.41599909E-01
 -1.81340069E-02 -8.16001577E-02 -4.27678922E-03 -1.28078130E-01  8.49195257E-02
  7.01930380E-02 -5.94052401E-02  1.54702371E-01 -2.73434902E-03 -1.17151323E-02
  2.31098359E-02 -1.41852913E-01  1.24663553E-02  6.87330247E-02  1.21608614E-01
  4.60899336E-01  1.26115901E-01  8.15875092E-02 -1.80217019E-01  4.39753819E-01
 -8.75401291E-02 -3.17758342E-01 -6.13993815E-02  2.70083637E-01  1.13767105E-01
  2.65307547E-01 -2.16974420E-02  1.66394754E-01 -1.25884944E-01 -9.51017892E-02
 -1.32286531E-02  3.41914288E-02  1.20683851E-01  3.91792475E-02  1.96975172E-02
  7.31166406E-02  8.35638898E-02  6.43685483E-02  2.08982966E-01  6.94664208E-02
 -2.58303526E-03  4.87849648E-01  8.55208456E-02 -2.40269938E-01  9.09704556E-03
  5.30875165E-01  1.16779927E-01 -2.27788347E-01 -9.11110810E-03  3.45193218E-01
  6.65972442E-02 -1.28659060E-01  4.57100573E-02 -7.78577012E-02  3.51118224E-02
  2.90243297E-02 -4.41966895E-02  1.73799762E-01 -5.34326716E-02  5.93463029E-02
 -4.77414385E-02  2.20727226E-01  8.27834955E-02  6.81583447E-02 -1.01997822E-01
  1.28532326E-02 -1.22390537E-01  3.38717967E-02  2.00867310E-02 -1.01102362E-02
 -5.34900147E-02  9.42281219E-03  1.33191887E-01  9.18027355E-02  3.99398724E-02
 -1.14509297E-02 -1.50982467E-01 -3.98834345E-02 -2.29231346E-02 -1.02548779E-01
  2.80319808E-02 -6.10409642E-02 -2.05783106E-03 -5.95858035E-03  1.77273834E-02
 -2.24265310E-02 -1.71116273E-01 -9.54286669E-02  1.29220823E-01 -5.10167992E-02
  2.48875808E-01  3.62529024E-02 -1.30828471E-01 -5.34163945E-02  1.81628314E-01
 -1.77907429E-02  2.18469448E-01 -5.40974826E-02  2.69569225E-01  3.46667354E-02
  2.50490080E-02  9.21737525E-02 -6.11404226E-04 -1.73729588E-01 -2.81005089E-02
  1.70251137E-01  1.17361919E-01 -2.40367954E-01 -1.00507717E-01  2.44809333E-02