 Entering Gaussian System, Link 0=g16
 Input=4znn_01_gebf_pm6_7.gjf
 Output=4znn_01_gebf_pm6_7.log
 Initial command:
 /work/01114/jfonner/frontera/gaussian/16rC.01/g16/l1.exe "/scratch1/08249/sa748948/lsqc/24846154/Gau-1622.inp" -scrdir="/scratch1/08249/sa748948/lsqc/24846154/"
 Entering Link 1 = /work/01114/jfonner/frontera/gaussian/16rC.01/g16/l1.exe PID=      1634.
  
 Copyright (c) 1988-2019, Gaussian, Inc.  All Rights Reserved.
  
 This is part of the Gaussian(R) 16 program.  It is based on
 the Gaussian(R) 09 system (copyright 2009, Gaussian, Inc.),
 the Gaussian(R) 03 system (copyright 2003, Gaussian, Inc.),
 the Gaussian(R) 98 system (copyright 1998, Gaussian, Inc.),
 the Gaussian(R) 94 system (copyright 1995, Gaussian, Inc.),
 the Gaussian 92(TM) system (copyright 1992, Gaussian, Inc.),
 the Gaussian 90(TM) system (copyright 1990, Gaussian, Inc.),
 the Gaussian 88(TM) system (copyright 1988, Gaussian, Inc.),
 the Gaussian 86(TM) system (copyright 1986, Carnegie Mellon
 University), and the Gaussian 82(TM) system (copyright 1983,
 Carnegie Mellon University). Gaussian is a federally registered
 trademark of Gaussian, Inc.
  
 This software contains proprietary and confidential information,
 including trade secrets, belonging to Gaussian, Inc.
  
 This software is provided under written license and may be
 used, copied, transmitted, or stored only in accord with that
 written license.
  
 The following legend is applicable only to US Government
 contracts under FAR:
  
                    RESTRICTED RIGHTS LEGEND
  
 Use, reproduction and disclosure by the US Government is
 subject to restrictions as set forth in subparagraphs (a)
 and (c) of the Commercial Computer Software - Restricted
 Rights clause in FAR 52.227-19.
  
 Gaussian, Inc.
 340 Quinnipiac St., Bldg. 40, Wallingford CT 06492
  
  
 ---------------------------------------------------------------
 Warning -- This program may not be used in any manner that
 competes with the business of Gaussian, Inc. or will provide
 assistance to any competitor of Gaussian, Inc.  The licensee
 of this program is prohibited from giving any competitor of
 Gaussian, Inc. access to this program.  By using this program,
 the user acknowledges that Gaussian, Inc. is engaged in the
 business of creating and licensing software in the field of
 computational chemistry and represents and warrants to the
 licensee that it is not a competitor of Gaussian, Inc. and that
 it will not use this program in any manner prohibited above.
 ---------------------------------------------------------------
  

 Cite this work as:
 Gaussian 16, Revision C.01,
 M. J. Frisch, G. W. Trucks, H. B. Schlegel, G. E. Scuseria, 
 M. A. Robb, J. R. Cheeseman, G. Scalmani, V. Barone, 
 G. A. Petersson, H. Nakatsuji, X. Li, M. Caricato, A. V. Marenich, 
 J. Bloino, B. G. Janesko, R. Gomperts, B. Mennucci, H. P. Hratchian, 
 J. V. Ortiz, A. F. Izmaylov, J. L. Sonnenberg, D. Williams-Young, 
 F. Ding, F. Lipparini, F. Egidi, J. Goings, B. Peng, A. Petrone, 
 T. Henderson, D. Ranasinghe, V. G. Zakrzewski, J. Gao, N. Rega, 
 G. Zheng, W. Liang, M. Hada, M. Ehara, K. Toyota, R. Fukuda, 
 J. Hasegawa, M. Ishida, T. Nakajima, Y. Honda, O. Kitao, H. Nakai, 
 T. Vreven, K. Throssell, J. A. Montgomery, Jr., J. E. Peralta, 
 F. Ogliaro, M. J. Bearpark, J. J. Heyd, E. N. Brothers, K. N. Kudin, 
 V. N. Staroverov, T. A. Keith, R. Kobayashi, J. Normand, 
 K. Raghavachari, A. P. Rendell, J. C. Burant, S. S. Iyengar, 
 J. Tomasi, M. Cossi, J. M. Millam, M. Klene, C. Adamo, R. Cammi, 
 J. W. Ochterski, R. L. Martin, K. Morokuma, O. Farkas, 
 J. B. Foresman, and D. J. Fox, Gaussian, Inc., Wallingford CT, 2019.
 
 ******************************************
 Gaussian 16:  ES64L-G16RevC.01  3-Jul-2019
                12-Jan-2022 
 ******************************************
 %chk=4znn_01_gebf_pm6_7.chk
 %nproc=56
 Will use up to   56 processors via shared memory.
 %mem=3gb
 ---------------------------------
 #p int=acc2e=12 pm6 charge nosymm
 ---------------------------------
 1/18=10,28=-2,38=1,125=101,172=1/1;
 2/12=2,15=1,17=6,18=5,40=1/2;
 3/5=2,25=1,27=12,41=3900000/1,2,3;
 4/35=1/1;
 5/5=2,35=1,38=5,87=12/2;
 6/7=2,8=2,9=2,10=2,28=1,87=12/1;
 99/5=1,9=1/99;
 Leave Link    1 at Wed Jan 12 16:07:27 2022, MaxMem=   402653184 cpu:               2.9 elap:               0.4
 (Enter /work/01114/jfonner/frontera/gaussian/16rC.01/g16/l101.exe)
 --------------
 Atom number=26
 --------------
 Symbolic Z-matrix:
 Charge =  1 Multiplicity = 1
 c                     3.006     0.047     14.361 
 o                     2.958    -1.169     14.515 
 n                     3.481     0.887     15.262 
 c                     4.163     0.392     16.442 
 c                     3.424     0.965     17.631 
 o                     3.136     2.11      17.612 
 n                     3.173     0.129     18.647 
 c                     2.559     0.516     19.903 
 c                     5.688     0.75      16.389 
 o                     6.264     0.13      15.236 
 c                     3.35     -0.122     21.014 
 o                     3.366    -1.339     21.14 
 n                     4.067     0.688     21.768 
 c                     4.888     0.205     22.851 
 c                     4.35      0.769     24.174 
 o                     4.161     1.981     24.269 
 n                     4.065    -0.12      25.151 
 c                     3.72      0.313     26.515 
 c                     1.138    -0.021     19.983 
 o                     0.393     0.394     18.824 
 c                     0.486     0.501     21.167 
 h                     2.70245   0.50124   13.44099 
 h                     6.2137    0.36219   17.23644 
 h                     5.91043   0.4887    22.71297 
 h                     4.5741    0.19198   27.14806 
 h                     2.86415  -0.20219   26.89841 
 
 ITRead=  0  0  0  0  0  0  0  0  0  0  0  0  0  0  0  0  0  0  0  0
 ITRead=  0  0  0  0  0  0
 MicOpt= -1 -1 -1 -1 -1 -1 -1 -1 -1 -1 -1 -1 -1 -1 -1 -1 -1 -1 -1 -1
 MicOpt= -1 -1 -1 -1 -1 -1
 NAtoms=     26 NQM=       26 NQMF=       0 NMMI=      0 NMMIF=      0
                NMic=       0 NMicF=      0.
                    Isotopes and Nuclear Properties:
 (Nuclear quadrupole moments (NQMom) in fm**2, nuclear magnetic moments (NMagM)
  in nuclear magnetons)

  Atom         1           2           3           4           5           6           7           8           9          10
 IAtWgt=          12          16          14          12          12          16          14          12          12          16
 AtmWgt=  12.0000000  15.9949146  14.0030740  12.0000000  12.0000000  15.9949146  14.0030740  12.0000000  12.0000000  15.9949146
 NucSpn=           0           0           2           0           0           0           2           0           0           0
 AtZEff=  -0.0000000  -0.0000000  -0.0000000  -0.0000000  -0.0000000  -0.0000000  -0.0000000  -0.0000000  -0.0000000  -0.0000000
 NQMom=    0.0000000   0.0000000   2.0440000   0.0000000   0.0000000   0.0000000   2.0440000   0.0000000   0.0000000   0.0000000
 NMagM=    0.0000000   0.0000000   0.4037610   0.0000000   0.0000000   0.0000000   0.4037610   0.0000000   0.0000000   0.0000000
 AtZNuc=   6.0000000   8.0000000   7.0000000   6.0000000   6.0000000   8.0000000   7.0000000   6.0000000   6.0000000   8.0000000

  Atom        11          12          13          14          15          16          17          18          19          20
 IAtWgt=          12          16          14          12          12          16          14          12          12          16
 AtmWgt=  12.0000000  15.9949146  14.0030740  12.0000000  12.0000000  15.9949146  14.0030740  12.0000000  12.0000000  15.9949146
 NucSpn=           0           0           2           0           0           0           2           0           0           0
 AtZEff=  -0.0000000  -0.0000000  -0.0000000  -0.0000000  -0.0000000  -0.0000000  -0.0000000  -0.0000000  -0.0000000  -0.0000000
 NQMom=    0.0000000   0.0000000   2.0440000   0.0000000   0.0000000   0.0000000   2.0440000   0.0000000   0.0000000   0.0000000
 NMagM=    0.0000000   0.0000000   0.4037610   0.0000000   0.0000000   0.0000000   0.4037610   0.0000000   0.0000000   0.0000000
 AtZNuc=   6.0000000   8.0000000   7.0000000   6.0000000   6.0000000   8.0000000   7.0000000   6.0000000   6.0000000   8.0000000

  Atom        21          22          23          24          25          26
 IAtWgt=          12           1           1           1           1           1
 AtmWgt=  12.0000000   1.0078250   1.0078250   1.0078250   1.0078250   1.0078250
 NucSpn=           0           1           1           1           1           1
 AtZEff=  -0.0000000  -0.0000000  -0.0000000  -0.0000000  -0.0000000  -0.0000000
 NQMom=    0.0000000   0.0000000   0.0000000   0.0000000   0.0000000   0.0000000
 NMagM=    0.0000000   2.7928460   2.7928460   2.7928460   2.7928460   2.7928460
 AtZNuc=   6.0000000   1.0000000   1.0000000   1.0000000   1.0000000   1.0000000
 Background charge distribution read from input stream:
 Point Charges:
 XYZ=   -6.8150   -0.6680    1.6070 Q=    0.1840 A=    0.0000 R=    0.0000 C=    0.0000
 XYZ=   -5.7140    0.0020    2.3730 Q=    0.1690 A=    0.0000 R=    0.0000 C=    0.0000
 XYZ=   -4.3570   -0.6730    2.5880 Q=    0.1957 A=    0.0000 R=    0.0000 C=    0.0000
 XYZ=   -4.2120   -1.8700    2.4920 Q=   -0.4612 A=    0.0000 R=    0.0000 C=    0.0000
 XYZ=   -3.3810    0.1250    2.9530 Q=   -0.3003 A=    0.0000 R=    0.0000 C=    0.0000
 XYZ=   -2.0620   -0.3900    3.2740 Q=    0.2639 A=    0.0000 R=    0.0000 C=    0.0000
 XYZ=   -1.6360    0.1750    4.6000 Q=    0.1489 A=    0.0000 R=    0.0000 C=    0.0000
 XYZ=   -1.7440    1.3560    4.8620 Q=   -0.3095 A=    0.0000 R=    0.0000 C=    0.0000
 XYZ=   -0.9930   -0.0450    2.1970 Q=   -1.2213 A=    0.0000 R=    0.0000 C=    0.0000
 XYZ=    0.3900   -0.4880    2.6400 Q=    0.9359 A=    0.0000 R=    0.0000 C=    0.0000
 XYZ=   -1.3780   -0.6620    0.8970 Q=    0.8742 A=    0.0000 R=    0.0000 C=    0.0000
 XYZ=   -1.0950   -0.7000    5.4150 Q=   -0.4278 A=    0.0000 R=    0.0000 C=    0.0000
 XYZ=   -0.5720   -0.3110    6.6690 Q=    0.2444 A=    0.0000 R=    0.0000 C=    0.0000
 XYZ=    0.8400   -0.8540    6.7920 Q=    0.2936 A=    0.0000 R=    0.0000 C=    0.0000
 XYZ=    1.0270   -2.0220    6.7200 Q=   -0.4615 A=    0.0000 R=    0.0000 C=    0.0000
 XYZ=   -1.4110   -0.9130    7.7970 Q=   -1.2093 A=    0.0000 R=    0.0000 C=    0.0000
 XYZ=   -0.7270   -0.6450    9.1230 Q=    0.9838 A=    0.0000 R=    0.0000 C=    0.0000
 XYZ=   -2.8000   -0.3490    7.7890 Q=    0.9737 A=    0.0000 R=    0.0000 C=    0.0000
 XYZ=    1.8100    0.0020    7.0230 Q=   -0.6094 A=    0.0000 R=    0.0000 C=    0.0000
 XYZ=    3.1910   -0.4290    7.1010 Q=   -0.0383 A=    0.0000 R=    0.0000 C=    0.0000
 XYZ=    3.9110    0.2580    8.2290 Q=    0.2652 A=    0.0000 R=    0.0000 C=    0.0000
 XYZ=    4.0640    1.4780    8.2280 Q=   -0.5489 A=    0.0000 R=    0.0000 C=    0.0000
 XYZ=    3.8710   -0.1030    5.7480 Q=    0.4467 A=    0.0000 R=    0.0000 C=    0.0000
 XYZ=    5.2470   -0.6430    5.5810 Q=   -0.4177 A=    0.0000 R=    0.0000 C=    0.0000
 XYZ=    5.8610   -0.6890    4.3530 Q=   -0.2968 A=    0.0000 R=    0.0000 C=    0.0000
 XYZ=    6.1080   -1.1970    6.4480 Q=    0.2630 A=    0.0000 R=    0.0000 C=    0.0000
 XYZ=    7.0590   -1.2270    4.4820 Q=    0.6103 A=    0.0000 R=    0.0000 C=    0.0000
 XYZ=    7.2390   -1.5230    5.7510 Q=   -0.3347 A=    0.0000 R=    0.0000 C=    0.0000
 XYZ=    4.3640   -0.5270    9.1890 Q=   -0.5070 A=    0.0000 R=    0.0000 C=    0.0000
 XYZ=    5.0670    0.0200   10.3260 Q=    0.3996 A=    0.0000 R=    0.0000 C=    0.0000
 XYZ=    4.2710    0.8170   11.2960 Q=    0.1621 A=    0.0000 R=    0.0000 C=    0.0000
 XYZ=    4.3590    2.0330   11.3670 Q=   -0.2980 A=    0.0000 R=    0.0000 C=    0.0000
 XYZ=    3.4920    0.1040   12.0730 Q=   -0.4667 A=    0.0000 R=    0.0000 C=    0.0000
 XYZ=    2.5850    0.6770   13.0850 Q=    0.2746 A=    0.0000 R=    0.0000 C=    0.0000
 XYZ=    1.1270    0.3300   12.8270 Q=   -1.2217 A=    0.0000 R=    0.0000 C=    0.0000
 XYZ=    0.2480    0.6750   14.0380 Q=    0.9822 A=    0.0000 R=    0.0000 C=    0.0000
 XYZ=    0.6740    1.0470   11.5960 Q=    0.9278 A=    0.0000 R=    0.0000 C=    0.0000
 XYZ=    6.4200    0.2100   17.5690 Q=    0.9463 A=    0.0000 R=    0.0000 C=    0.0000
 XYZ=    6.3620    0.6140   22.6520 Q=   -1.1933 A=    0.0000 R=    0.0000 C=    0.0000
 XYZ=    7.1520    0.2970   23.8740 Q=    0.8585 A=    0.0000 R=    0.0000 C=    0.0000
 XYZ=    6.9530   -0.1210   21.4550 Q=    0.9590 A=    0.0000 R=    0.0000 C=    0.0000
 XYZ=    4.9410    0.1400   27.4200 Q=    0.0549 A=    0.0000 R=    0.0000 C=    0.0000
 XYZ=    5.7140   -0.8090   27.2870 Q=   -0.0565 A=    0.0000 R=    0.0000 C=    0.0000
 XYZ=    2.4990   -0.4220   27.0620 Q=    1.1023 A=    0.0000 R=    0.0000 C=    0.0000
 XYZ=    5.2500    0.9550   28.2940 Q=    0.3115 A=    0.0000 R=    0.0000 C=    0.0000
 Pt Chg Charge=              3.4511 electrons
 Pt Chg Dipole moment (Debye):
    X=             51.1870    Y=             -0.3079    Z=            354.0204  Tot=            357.7019
 Pt Chg Quadrupole moment (Debye-Ang):
   XX=            487.9072   YY=            -20.9899   ZZ=           8441.4965
   XY=            -29.9880   XZ=           1425.5731   YZ=             -3.2011
 Pt Chg Traceless Quadrupole moment (Debye-Ang):
   XX=          -2481.5641   YY=          -2990.4612   ZZ=           5472.0253
   XY=            -29.9880   XZ=           1425.5731   YZ=             -3.2011
 Pt Chg Octapole moment (Debye-Ang**2):
  XXX=           2720.4022  YYY=             15.4851  ZZZ=         205409.3802  XYY=            -12.1900
  XXY=           -128.6669  XXZ=           9584.0118  XZZ=          35341.6802  YZZ=           -644.1643
  YYZ=           -101.3080  XYZ=           -318.3715
 Pt Chg Hexadecapole moment (Debye-Ang**3):
 XXXX=          24878.1821 YYYY=           -100.4690 ZZZZ=        5140784.4322 XXXY=           -818.1977
 XXXZ=          62595.6654 YYYX=           -121.8112 YYYZ=             42.7740 ZZZX=         864213.1272
 ZZZY=         -21655.0398 XXYY=           -307.1025 XXZZ=         213157.4752 YYZZ=            203.0039
 XXYZ=          -1405.3543 YYXZ=           -322.7431 ZZXY=          -4550.2202
 Leave Link  101 at Wed Jan 12 16:07:28 2022, MaxMem=   402653184 cpu:               5.4 elap:               1.2
 (Enter /work/01114/jfonner/frontera/gaussian/16rC.01/g16/l202.exe)
                          Input orientation:                          
 ---------------------------------------------------------------------
 Center     Atomic      Atomic             Coordinates (Angstroms)
 Number     Number       Type             X           Y           Z
 ---------------------------------------------------------------------
      1          6           0        3.006000    0.047000   14.361000
      2          8           0        2.958000   -1.169000   14.515000
      3          7           0        3.481000    0.887000   15.262000
      4          6           0        4.163000    0.392000   16.442000
      5          6           0        3.424000    0.965000   17.631000
      6          8           0        3.136000    2.110000   17.612000
      7          7           0        3.173000    0.129000   18.647000
      8          6           0        2.559000    0.516000   19.903000
      9          6           0        5.688000    0.750000   16.389000
     10          8           0        6.264000    0.130000   15.236000
     11          6           0        3.350000   -0.122000   21.014000
     12          8           0        3.366000   -1.339000   21.140000
     13          7           0        4.067000    0.688000   21.768000
     14          6           0        4.888000    0.205000   22.851000
     15          6           0        4.350000    0.769000   24.174000
     16          8           0        4.161000    1.981000   24.269000
     17          7           0        4.065000   -0.120000   25.151000
     18          6           0        3.720000    0.313000   26.515000
     19          6           0        1.138000   -0.021000   19.983000
     20          8           0        0.393000    0.394000   18.824000
     21          6           0        0.486000    0.501000   21.167000
     22          1           0        2.702453    0.501239   13.440986
     23          1           0        6.213697    0.362191   17.236435
     24          1           0        5.910429    0.488700   22.712965
     25          1           0        4.574104    0.191985   27.148058
     26          1           0        2.864154   -0.202190   26.898414
 ---------------------------------------------------------------------
                    Distance matrix (angstroms):
                    1          2          3          4          5
     1  C    0.000000
     2  O    1.226652   0.000000
     3  N    1.320237   2.249150   0.000000
     4  C    2.405875   2.757186   1.450017   0.000000
     5  C    3.422039   3.805334   2.370969   1.512670   0.000000
     6  O    3.852515   4.513860   2.671564   2.318438   1.180818
     7  N    4.290036   4.336410   3.482478   2.431315   1.339460
     8  C    5.579743   5.659414   4.746220   3.816636   2.472208
     9  C    3.435130   3.827184   2.481884   1.567354   2.591232
    10  O    3.374474   3.624483   2.884235   2.436654   3.807736
    11  C    6.664031   6.594458   5.841297   4.672082   3.554115
    12  O    6.928596   6.639728   6.286429   5.069790   4.198197
    13  N    7.510010   7.568642   6.535368   5.335083   4.195825
    14  C    8.697528   8.666122   7.748399   6.452587   5.474422
    15  C    9.930891   9.949361   8.955045   7.743444   6.611107
    16  O   10.160849  10.320379   9.098642   7.986667   6.755625
    17  N   10.843130  10.744782   9.957280   8.724588   7.624861
    18  C   12.177860  12.115154  11.270164  10.083046   8.912810
    19  C    5.924604   5.876166   5.348079   4.675455   3.424894
    20  O    5.183295   5.252587   4.739898   4.459465   3.307000
    21  C    7.271737   7.290322   6.632348   5.988141   4.620653
    22  H    1.070000   2.002126   2.017682   3.339344   4.276906
    23  H    4.319351   4.511133   3.411957   2.199403   2.881227
    24  H    8.853594   8.869692   7.847143   6.510596   5.677637
    25  H   12.883665  12.808521  11.956433  10.715815   9.617416
    26  H   12.540692  12.421452  11.703545  10.553514   9.357388
                    6          7          8          9         10
     6  O    0.000000
     7  N    2.235387   0.000000
     8  C    2.849991   1.450621   0.000000
     9  C    3.139750   3.436485   4.711008   0.000000
    10  O    4.398882   4.603173   5.971341   1.430239   0.000000
    11  C    4.074460   2.386843   1.505671   5.255212   6.476124
    12  O    4.939158   2.899538   2.371169   5.685737   6.738960
    13  N    4.490120   3.294292   2.404553   5.618285   6.914130
    14  C    5.843428   4.540993   3.769836   6.534100   7.738684
    15  C    6.806756   5.687061   4.638225   7.899166   9.162945
    16  O    6.736684   6.001078   4.875919   8.120437   9.457478
    17  N    7.916594   6.569603   5.496730   8.953417  10.159002
    18  C    9.101301   7.889137   6.716225  10.324721  11.563791
    19  C    3.762287   2.438979   1.521187   5.849254   6.988039
    20  O    3.455090   2.798205   2.422949   5.838920   6.885643
    21  C    4.716928   3.702533   2.428014   7.067679   8.288527
    22  H    4.491485   5.240473   6.463623   4.203113   4.005560
    23  H    3.559228   3.360046   4.526703   1.070000   2.014493
    24  H    6.028757   4.914771   4.373640   6.333268   7.493910
    25  H    9.832768   8.615976   7.527051  10.830950  12.031489
    26  H    9.573798   8.263831   7.038802  10.923761  12.152415
                   11         12         13         14         15
    11  C    0.000000
    12  O    1.223610   0.000000
    13  N    1.318600   2.234841   0.000000
    14  C    2.418045   2.761873   1.442296   0.000000
    15  C    3.432125   3.823228   2.423940   1.535535   0.000000
    16  O    3.959211   4.630882   2.817035   2.386091   1.230321
    17  N    4.198333   4.250022   3.478154   2.464336   1.351323
    18  C    5.530563   5.634274   4.774415   3.847179   2.466803
    19  C    2.442561   2.835447   3.502563   4.726415   5.339057
    20  O    3.715670   4.147996   4.717186   6.038003   6.664906
    21  C    2.934967   3.417708   3.635895   4.722402   4.903506
    22  H    7.626158   7.943651   8.440144   9.665027  10.862030
    23  H    4.764997   5.122621   5.024892   5.771093   7.195045
    24  H    3.132927   3.505542   2.081084   1.070000   2.155952
    25  H    6.262881   6.316660   5.426620   4.308527   3.037794
    26  H    5.904981   5.890969   5.344195   4.543492   3.251673
                   16         17         18         19         20
    16  O    0.000000
    17  N    2.280645   0.000000
    18  C    2.832176   1.472077   0.000000
    19  C    5.613941   5.940148   7.031735   0.000000
    20  O    6.809142   7.333397   8.380153   1.438934   0.000000
    21  C    5.031742   5.391395   6.252616   1.448946   2.347285
    22  H   11.025559  11.805376  13.114903   6.746717   5.858491
    23  H    7.502738   8.215214   9.607950   5.783870   6.033398
    24  H    2.776456   3.117713   4.391391   5.521647   6.750929
    25  H    3.414704   2.084409   1.070000   7.949228   9.317316
    26  H    3.655400   2.121849   1.070000   7.129893   8.465117
                   21         22         23         24         25
    21  C    0.000000
    22  H    8.037659   0.000000
    23  H    6.948030   5.172389   0.000000
    24  H    5.640442   9.811262   5.486379   0.000000
    25  H    7.251285  13.837722  10.047761   4.641536   0.000000
    26  H    6.244933  13.476770  10.241669   5.222557   1.772463
                   26
    26  H    0.000000
 Symmetry turned off by external request.
 Stoichiometry    C11H5N4O6(1+)
 Framework group  C1[X(C11H5N4O6)]
 Deg. of freedom    72
 Full point group                 C1      NOp   1
 Rotational constants (GHZ):           0.6333556           0.1282452           0.1162134
 Leave Link  202 at Wed Jan 12 16:07:29 2022, MaxMem=   402653184 cpu:               3.9 elap:               0.6
 (Enter /work/01114/jfonner/frontera/gaussian/16rC.01/g16/l301.exe)
 Standard basis: VSTO-6G (5D, 7F)
 Ernie: Thresh=  0.10000D-02 Tol=  0.10000D-05 Strict=F.
  NNHCO=     0 NNPyr=     0 NCTC=     0               EPep=         0.000000000
    EC=       663.619255054  ECS=         6.272422522   EG=         0.568695875
   EHC=         0.002231016  EAt=      -137.663748154  AtH=         4.700572853
 EPDDG=         0.000000000  ECC=       670.462604467 EAtT=       142.364321007
    89 basis functions,   534 primitive gaussians,    89 cartesian basis functions
    52 alpha electrons       52 beta electrons
       nuclear repulsion energy       812.8269254737 Hartrees.
 IExCor=    0 DFT=F Ex=HF Corr=None ExCW=0 ScaHFX=  1.000000
 ScaDFX=  1.000000  1.000000  1.000000  1.000000 ScalE2=  1.000000  1.000000
 IRadAn=      5 IRanWt=     -1 IRanGd=            0 ICorTp=0 IEmpDi=  4
 Integral buffers will be    131072 words long.
 Regular integral format.
 Two-electron integral symmetry is turned off.
 Background charge distribution read from rwf.
 PtFMM for NChg=        71 BoxLen=    40.00 Levels= 1 LMax=20 SMax=    51.8 ICnFMM=     1:
 Self energy of the charges =        -2.9182069391 a.u.
 MM   energy of the charges =         0.0000000000 a.u.
 Nuclei-charges interaction =        34.4274586283 a.u.
 Nuclear repulsion after external point charges =      844.3361771629 Hartrees.
 Leave Link  301 at Wed Jan 12 16:07:30 2022, MaxMem=   402653184 cpu:               4.4 elap:               0.8
 (Enter /work/01114/jfonner/frontera/gaussian/16rC.01/g16/l302.exe)
 Do NDO integrals.
 NPDir=0 NMtPBC=     1 NCelOv=     1 NCel=       1 NClECP=     1 NCelD=      1
         NCelK=      1 NCelE2=     1 NClLst=     1 CellRange=     0.0.
 One-electron integrals computed using PRISM.
 NBasis=    89 RedAO= F EigKep=  0.00D+00  NBF=    89
 NBsUse=    89 1.00D-04 EigRej=  0.00D+00 NBFU=    89
 Leave Link  302 at Wed Jan 12 16:07:34 2022, MaxMem=   402653184 cpu:              23.0 elap:               4.0
 (Enter /work/01114/jfonner/frontera/gaussian/16rC.01/g16/l303.exe)
 DipDrv:  MaxL=1.
 Leave Link  303 at Wed Jan 12 16:07:35 2022, MaxMem=   402653184 cpu:               4.1 elap:               0.7
 (Enter /work/01114/jfonner/frontera/gaussian/16rC.01/g16/l401.exe)
 Simple Huckel Guess.
 JPrj=0 DoOrth=F DoCkMO=F.
 Leave Link  401 at Wed Jan 12 16:07:37 2022, MaxMem=   402653184 cpu:              12.7 elap:               2.2
 (Enter /work/01114/jfonner/frontera/gaussian/16rC.01/g16/l502.exe)
 Keep J ints in memory in canonical form, NReq=883584.
 FoFCou: FMM=F IPFlag=           0 FMFlag=           0 FMFlg1=           0
         NFxFlg=           0 DoJE=F BraDBF=F KetDBF=F FulRan=T
         wScrn=  0.000000 ICntrl=       600 IOpCl=  2 I1Cent=           0 NGrid=           0
         NMat0=    1 NMatS0=    215 NMatT0=    0 NMatD0=    1 NMtDS0=    0 NMtDT0=    0
 Symmetry not used in FoFCou.
 Two-electron integral symmetry not used.
 Closed shell SCF:
 Using DIIS extrapolation, IDIIS=  1040.
 Overlap will be assumed to be unity.
 NGot=   402653184 LenX=   402548299 LenY=   402539937
 Requested convergence on RMS density matrix=1.00D-08 within 128 cycles.
 Requested convergence on MAX density matrix=1.00D-06.
 Requested convergence on             energy=1.00D-06.
 No special actions if energy rises.

 Cycle   1  Pass 1  IDiag  1:
 E= 0.899774988466675    
 DIIS: error= 8.16D-02 at cycle   1 NSaved=   1.
 NSaved= 1 IEnMin= 1 EnMin= 0.899774988466675     IErMin= 1 ErrMin= 8.16D-02
 ErrMax= 8.16D-02  0.00D+00 EMaxC= 1.00D-01 BMatC= 3.76D-01 BMatP= 3.76D-01
 IDIUse=3 WtCom= 1.84D-01 WtEn= 8.16D-01
 Coeff-Com:  0.100D+01
 Coeff-En:   0.100D+01
 Coeff:      0.100D+01
 GapD=    2.000 DampG=2.000 DampE=0.500 DampFc=1.0000 IDamp=-1.
 RMSDP=2.94D-02 MaxDP=8.47D-01              OVMax= 0.00D+00

 Cycle   2  Pass 1  IDiag  1:
 E=  2.72955282089742     Delta-E=        1.829777832431 Rises=F Damp=F
 DIIS: error= 7.91D-02 at cycle   2 NSaved=   2.
 NSaved= 2 IEnMin= 1 EnMin= 0.899774988466675     IErMin= 2 ErrMin= 7.91D-02
 ErrMax= 7.91D-02  0.00D+00 EMaxC= 1.00D-01 BMatC= 3.60D-01 BMatP= 3.76D-01
 IDIUse=3 WtCom= 2.09D-01 WtEn= 7.91D-01
 Coeff-Com:  0.488D+00 0.512D+00
 Coeff-En:   0.761D+00 0.239D+00
 Coeff:      0.704D+00 0.296D+00
 RMSDP=2.86D-02 MaxDP=8.17D-01 DE= 1.83D+00 OVMax= 0.00D+00

 Cycle   3  Pass 1  IDiag  1:
 E= 0.792371355578894     Delta-E=       -1.937181465319 Rises=F Damp=F
 DIIS: error= 5.75D-02 at cycle   3 NSaved=   3.
 NSaved= 3 IEnMin= 3 EnMin= 0.792371355578894     IErMin= 3 ErrMin= 5.75D-02
 ErrMax= 5.75D-02  0.00D+00 EMaxC= 1.00D-01 BMatC= 2.67D-01 BMatP= 3.60D-01
 IDIUse=3 WtCom= 4.25D-01 WtEn= 5.75D-01
 Coeff-Com:  0.226D+00 0.341D+00 0.432D+00
 Coeff-En:   0.000D+00 0.363D+00 0.637D+00
 Coeff:      0.963D-01 0.354D+00 0.550D+00
 RMSDP=1.85D-02 MaxDP=5.12D-01 DE=-1.94D+00 OVMax= 0.00D+00

 Cycle   4  Pass 1  IDiag  1:
 E=-0.818376611562826     Delta-E=       -1.610747967142 Rises=F Damp=F
 DIIS: error= 2.51D-02 at cycle   4 NSaved=   4.
 NSaved= 4 IEnMin= 4 EnMin=-0.818376611562826     IErMin= 4 ErrMin= 2.51D-02
 ErrMax= 2.51D-02  0.00D+00 EMaxC= 1.00D-01 BMatC= 5.68D-02 BMatP= 2.67D-01
 IDIUse=3 WtCom= 7.49D-01 WtEn= 2.51D-01
 Coeff-Com: -0.153D+00 0.171D+00 0.156D+00 0.827D+00
 Coeff-En:   0.000D+00 0.157D-01 0.000D+00 0.984D+00
 Coeff:     -0.115D+00 0.132D+00 0.117D+00 0.866D+00
 RMSDP=7.59D-03 MaxDP=9.46D-02 DE=-1.61D+00 OVMax= 0.00D+00

 Cycle   5  Pass 1  IDiag  1:
 E= -1.07014468326690     Delta-E=       -0.251768071704 Rises=F Damp=F
 DIIS: error= 6.90D-03 at cycle   5 NSaved=   5.
 NSaved= 5 IEnMin= 5 EnMin= -1.07014468326690     IErMin= 5 ErrMin= 6.90D-03
 ErrMax= 6.90D-03  0.00D+00 EMaxC= 1.00D-01 BMatC= 6.61D-03 BMatP= 5.68D-02
 IDIUse=3 WtCom= 9.31D-01 WtEn= 6.90D-02
 Coeff-Com: -0.151D-01 0.323D-01-0.526D-01-0.581D-01 0.109D+01
 Coeff-En:   0.000D+00 0.000D+00 0.000D+00 0.000D+00 0.100D+01
 Coeff:     -0.141D-01 0.301D-01-0.489D-01-0.541D-01 0.109D+01
 RMSDP=3.13D-03 MaxDP=4.27D-02 DE=-2.52D-01 OVMax= 0.00D+00

 Cycle   6  Pass 1  IDiag  3:
 E= -1.11085854015562     Delta-E=       -0.040713856889 Rises=F Damp=F
 DIIS: error= 2.89D-03 at cycle   6 NSaved=   6.
 NSaved= 6 IEnMin= 6 EnMin= -1.11085854015562     IErMin= 6 ErrMin= 2.89D-03
 ErrMax= 2.89D-03  0.00D+00 EMaxC= 1.00D-01 BMatC= 1.52D-03 BMatP= 6.61D-03
 IDIUse=3 WtCom= 9.71D-01 WtEn= 2.89D-02
 Coeff-Com: -0.426D-02 0.144D-01-0.115D-01 0.780D-02-0.276D+00 0.127D+01
 Coeff-En:   0.000D+00 0.000D+00 0.000D+00 0.000D+00 0.000D+00 0.100D+01
 Coeff:     -0.413D-02 0.140D-01-0.111D-01 0.757D-02-0.268D+00 0.126D+01
 Gap=     0.136 Goal=   None    Shift=    0.000
 RMSDP=1.98D-03 MaxDP=2.10D-02 DE=-4.07D-02 OVMax= 5.98D-02

 Cycle   7  Pass 1  IDiag  3:
 E= -1.12433520381694     Delta-E=       -0.013476663661 Rises=F Damp=F
 DIIS: error= 1.54D-03 at cycle   7 NSaved=   7.
 NSaved= 7 IEnMin= 7 EnMin= -1.12433520381694     IErMin= 7 ErrMin= 1.54D-03
 ErrMax= 1.54D-03  0.00D+00 EMaxC= 1.00D-01 BMatC= 5.18D-04 BMatP= 1.52D-03
 IDIUse=3 WtCom= 9.85D-01 WtEn= 1.54D-02
 Coeff-Com:  0.257D-02 0.326D-02-0.164D-02 0.266D-01-0.127D+00-0.350D+00
 Coeff-Com:  0.145D+01
 Coeff-En:   0.000D+00 0.000D+00 0.000D+00 0.000D+00 0.000D+00 0.000D+00
 Coeff-En:   0.100D+01
 Coeff:      0.253D-02 0.321D-02-0.162D-02 0.262D-01-0.125D+00-0.344D+00
 Coeff:      0.144D+01
 Gap=     0.142 Goal=   None    Shift=    0.000
 RMSDP=1.78D-03 MaxDP=2.57D-02 DE=-1.35D-02 OVMax= 6.32D-02

 Cycle   8  Pass 1  IDiag  3:
 E= -1.13157524813482     Delta-E=       -0.007240044318 Rises=F Damp=F
 DIIS: error= 1.41D-03 at cycle   8 NSaved=   8.
 NSaved= 8 IEnMin= 8 EnMin= -1.13157524813482     IErMin= 8 ErrMin= 1.41D-03
 ErrMax= 1.41D-03  0.00D+00 EMaxC= 1.00D-01 BMatC= 1.80D-04 BMatP= 5.18D-04
 IDIUse=3 WtCom= 9.86D-01 WtEn= 1.41D-02
 Coeff-Com: -0.244D-02 0.643D-03 0.757D-03 0.965D-02 0.676D-01-0.173D+00
 Coeff-Com: -0.366D+00 0.146D+01
 Coeff-En:   0.000D+00 0.000D+00 0.000D+00 0.000D+00 0.000D+00 0.000D+00
 Coeff-En:   0.000D+00 0.100D+01
 Coeff:     -0.241D-02 0.634D-03 0.747D-03 0.952D-02 0.667D-01-0.170D+00
 Coeff:     -0.360D+00 0.146D+01
 Gap=     0.146 Goal=   None    Shift=    0.000
 RMSDP=1.40D-03 MaxDP=2.44D-02 DE=-7.24D-03 OVMax= 5.80D-02

 Cycle   9  Pass 1  IDiag  3:
 E= -1.13527050805260     Delta-E=       -0.003695259918 Rises=F Damp=F
 DIIS: error= 1.25D-03 at cycle   9 NSaved=   9.
 NSaved= 9 IEnMin= 9 EnMin= -1.13527050805260     IErMin= 9 ErrMin= 1.25D-03
 ErrMax= 1.25D-03  0.00D+00 EMaxC= 1.00D-01 BMatC= 8.78D-05 BMatP= 1.80D-04
 IDIUse=3 WtCom= 9.88D-01 WtEn= 1.25D-02
 Coeff-Com:  0.628D-03-0.132D-02 0.424D-03-0.532D-02-0.250D-02 0.211D+00
 Coeff-Com: -0.357D+00-0.628D+00 0.178D+01
 Coeff-En:   0.000D+00 0.000D+00 0.000D+00 0.000D+00 0.000D+00 0.000D+00
 Coeff-En:   0.000D+00 0.000D+00 0.100D+01
 Coeff:      0.620D-03-0.130D-02 0.418D-03-0.526D-02-0.247D-02 0.209D+00
 Coeff:     -0.353D+00-0.620D+00 0.177D+01
 Gap=     0.148 Goal=   None    Shift=    0.000
 RMSDP=1.43D-03 MaxDP=2.62D-02 DE=-3.70D-03 OVMax= 6.28D-02

 Cycle  10  Pass 1  IDiag  3:
 E= -1.13786679791360     Delta-E=       -0.002596289861 Rises=F Damp=F
 DIIS: error= 9.46D-04 at cycle  10 NSaved=  10.
 NSaved=10 IEnMin=10 EnMin= -1.13786679791360     IErMin=10 ErrMin= 9.46D-04
 ErrMax= 9.46D-04  0.00D+00 EMaxC= 1.00D-01 BMatC= 4.57D-05 BMatP= 8.78D-05
 IDIUse=3 WtCom= 9.91D-01 WtEn= 9.46D-03
 Coeff-Com:  0.466D-03-0.164D-02 0.437D-03 0.190D-02-0.717D-02-0.319D-01
 Coeff-Com:  0.186D+00-0.196D+00-0.577D+00 0.163D+01
 Coeff-En:   0.000D+00 0.000D+00 0.000D+00 0.000D+00 0.000D+00 0.000D+00
 Coeff-En:   0.000D+00 0.000D+00 0.000D+00 0.100D+01
 Coeff:      0.462D-03-0.162D-02 0.433D-03 0.188D-02-0.710D-02-0.316D-01
 Coeff:      0.184D+00-0.195D+00-0.572D+00 0.162D+01
 Gap=     0.149 Goal=   None    Shift=    0.000
 RMSDP=1.06D-03 MaxDP=1.83D-02 DE=-2.60D-03 OVMax= 4.79D-02

 Cycle  11  Pass 1  IDiag  3:
 E= -1.13920983363312     Delta-E=       -0.001343035720 Rises=F Damp=F
 DIIS: error= 6.61D-04 at cycle  11 NSaved=  11.
 NSaved=11 IEnMin=11 EnMin= -1.13920983363312     IErMin=11 ErrMin= 6.61D-04
 ErrMax= 6.61D-04  0.00D+00 EMaxC= 1.00D-01 BMatC= 2.49D-05 BMatP= 4.57D-05
 IDIUse=3 WtCom= 9.93D-01 WtEn= 6.61D-03
 Coeff-Com: -0.601D-03-0.100D-02 0.738D-03 0.281D-02 0.589D-02-0.619D-01
 Coeff-Com:  0.961D-01 0.168D+00-0.455D+00-0.504D+00 0.175D+01
 Coeff-En:   0.000D+00 0.000D+00 0.000D+00 0.000D+00 0.000D+00 0.000D+00
 Coeff-En:   0.000D+00 0.000D+00 0.000D+00 0.000D+00 0.100D+01
 Coeff:     -0.597D-03-0.996D-03 0.733D-03 0.279D-02 0.585D-02-0.614D-01
 Coeff:      0.955D-01 0.167D+00-0.452D+00-0.501D+00 0.174D+01
 Gap=     0.150 Goal=   None    Shift=    0.000
 RMSDP=1.02D-03 MaxDP=1.79D-02 DE=-1.34D-03 OVMax= 4.64D-02

 Cycle  12  Pass 1  IDiag  3:
 E= -1.14006235299610     Delta-E=       -0.000852519363 Rises=F Damp=F
 DIIS: error= 5.20D-04 at cycle  12 NSaved=  12.
 NSaved=12 IEnMin=12 EnMin= -1.14006235299610     IErMin=12 ErrMin= 5.20D-04
 ErrMax= 5.20D-04  0.00D+00 EMaxC= 1.00D-01 BMatC= 1.33D-05 BMatP= 2.49D-05
 IDIUse=3 WtCom= 9.95D-01 WtEn= 5.20D-03
 Coeff-Com:  0.234D-03-0.717D-03 0.310D-03-0.107D-02 0.447D-02-0.742D-02
 Coeff-Com: -0.624D-03 0.392D-01 0.527D-01-0.325D+00-0.156D+00 0.139D+01
 Coeff-En:   0.000D+00 0.000D+00 0.000D+00 0.000D+00 0.000D+00 0.000D+00
 Coeff-En:   0.000D+00 0.000D+00 0.000D+00 0.000D+00 0.000D+00 0.100D+01
 Coeff:      0.233D-03-0.714D-03 0.308D-03-0.107D-02 0.445D-02-0.738D-02
 Coeff:     -0.621D-03 0.390D-01 0.524D-01-0.324D+00-0.155D+00 0.139D+01
 Gap=     0.150 Goal=   None    Shift=    0.000
 RMSDP=6.04D-04 MaxDP=1.08D-02 DE=-8.53D-04 OVMax= 2.76D-02

 Cycle  13  Pass 1  IDiag  3:
 E= -1.14040297190923     Delta-E=       -0.000340618913 Rises=F Damp=F
 DIIS: error= 3.93D-04 at cycle  13 NSaved=  13.
 NSaved=13 IEnMin=13 EnMin= -1.14040297190923     IErMin=13 ErrMin= 3.93D-04
 ErrMax= 3.93D-04  0.00D+00 EMaxC= 1.00D-01 BMatC= 6.17D-06 BMatP= 1.33D-05
 IDIUse=3 WtCom= 9.96D-01 WtEn= 3.93D-03
 Coeff-Com: -0.421D-04-0.149D-03 0.201D-03-0.284D-03 0.117D-02 0.808D-03
 Coeff-Com: -0.980D-02 0.108D-02 0.582D-01 0.589D-02-0.281D+00-0.289D+00
 Coeff-Com:  0.151D+01
 Coeff-En:   0.000D+00 0.000D+00 0.000D+00 0.000D+00 0.000D+00 0.000D+00
 Coeff-En:   0.000D+00 0.000D+00 0.000D+00 0.000D+00 0.000D+00 0.000D+00
 Coeff-En:   0.100D+01
 Coeff:     -0.419D-04-0.148D-03 0.201D-03-0.283D-03 0.116D-02 0.805D-03
 Coeff:     -0.976D-02 0.107D-02 0.579D-01 0.587D-02-0.279D+00-0.288D+00
 Coeff:      0.151D+01
 Gap=     0.150 Goal=   None    Shift=    0.000
 RMSDP=4.84D-04 MaxDP=8.18D-03 DE=-3.41D-04 OVMax= 2.21D-02

 Cycle  14  Pass 1  IDiag  3:
 E= -1.14058055527073     Delta-E=       -0.000177583362 Rises=F Damp=F
 DIIS: error= 2.77D-04 at cycle  14 NSaved=  14.
 NSaved=14 IEnMin=14 EnMin= -1.14058055527073     IErMin=14 ErrMin= 2.77D-04
 ErrMax= 2.77D-04  0.00D+00 EMaxC= 1.00D-01 BMatC= 3.08D-06 BMatP= 6.17D-06
 IDIUse=3 WtCom= 9.97D-01 WtEn= 2.77D-03
 Coeff-Com:  0.149D-03-0.100D-03-0.496D-04-0.106D-03-0.205D-02 0.816D-02
 Coeff-Com: -0.978D-02-0.270D-01 0.690D-01-0.316D-02 0.348D-01-0.304D+00
 Coeff-Com: -0.304D+00 0.154D+01
 Coeff-En:   0.000D+00 0.000D+00 0.000D+00 0.000D+00 0.000D+00 0.000D+00
 Coeff-En:   0.000D+00 0.000D+00 0.000D+00 0.000D+00 0.000D+00 0.000D+00
 Coeff-En:   0.000D+00 0.100D+01
 Coeff:      0.149D-03-0.998D-04-0.495D-04-0.106D-03-0.204D-02 0.814D-02
 Coeff:     -0.975D-02-0.269D-01 0.689D-01-0.315D-02 0.347D-01-0.303D+00
 Coeff:     -0.303D+00 0.154D+01
 Gap=     0.150 Goal=   None    Shift=    0.000
 RMSDP=3.22D-04 MaxDP=6.39D-03 DE=-1.78D-04 OVMax= 1.43D-02

 Cycle  15  Pass 1  IDiag  3:
 E= -1.14066079816496     Delta-E=       -0.000080242894 Rises=F Damp=F
 DIIS: error= 1.80D-04 at cycle  15 NSaved=  15.
 NSaved=15 IEnMin=15 EnMin= -1.14066079816496     IErMin=15 ErrMin= 1.80D-04
 ErrMax= 1.80D-04  0.00D+00 EMaxC= 1.00D-01 BMatC= 1.32D-06 BMatP= 3.08D-06
 IDIUse=3 WtCom= 9.98D-01 WtEn= 1.80D-03
 Coeff-Com: -0.529D-04 0.405D-06 0.512D-05 0.299D-03-0.647D-03 0.591D-02
 Coeff-Com: -0.144D-01 0.917D-03 0.196D-01 0.308D-02 0.312D-01-0.400D-01
 Coeff-Com: -0.208D+00-0.287D+00 0.149D+01
 Coeff-En:   0.000D+00 0.000D+00 0.000D+00 0.000D+00 0.000D+00 0.000D+00
 Coeff-En:   0.000D+00 0.000D+00 0.000D+00 0.000D+00 0.000D+00 0.000D+00
 Coeff-En:   0.000D+00 0.000D+00 0.100D+01
 Coeff:     -0.528D-04 0.404D-06 0.511D-05 0.298D-03-0.645D-03 0.589D-02
 Coeff:     -0.144D-01 0.915D-03 0.196D-01 0.308D-02 0.312D-01-0.400D-01
 Coeff:     -0.208D+00-0.286D+00 0.149D+01
 Gap=     0.150 Goal=   None    Shift=    0.000
 RMSDP=2.17D-04 MaxDP=4.73D-03 DE=-8.02D-05 OVMax= 9.22D-03

 Cycle  16  Pass 1  IDiag  3:
 E= -1.14069536090847     Delta-E=       -0.000034562744 Rises=F Damp=F
 DIIS: error= 1.09D-04 at cycle  16 NSaved=  16.
 NSaved=16 IEnMin=16 EnMin= -1.14069536090847     IErMin=16 ErrMin= 1.09D-04
 ErrMax= 1.09D-04  0.00D+00 EMaxC= 1.00D-01 BMatC= 5.54D-07 BMatP= 1.32D-06
 IDIUse=3 WtCom= 9.99D-01 WtEn= 1.09D-03
 Coeff-Com:  0.201D-04-0.377D-04-0.254D-04-0.352D-04 0.158D-03 0.582D-03
 Coeff-Com: -0.181D-02-0.110D-02 0.418D-02-0.715D-02 0.318D-01-0.166D-01
 Coeff-Com:  0.217D-01-0.209D+00-0.290D+00 0.147D+01
 Coeff-En:   0.000D+00 0.000D+00 0.000D+00 0.000D+00 0.000D+00 0.000D+00
 Coeff-En:   0.000D+00 0.000D+00 0.000D+00 0.000D+00 0.000D+00 0.000D+00
 Coeff-En:   0.000D+00 0.000D+00 0.000D+00 0.100D+01
 Coeff:      0.201D-04-0.376D-04-0.254D-04-0.352D-04 0.158D-03 0.582D-03
 Coeff:     -0.181D-02-0.110D-02 0.417D-02-0.715D-02 0.318D-01-0.166D-01
 Coeff:      0.217D-01-0.209D+00-0.290D+00 0.147D+01
 Gap=     0.150 Goal=   None    Shift=    0.000
 RMSDP=1.34D-04 MaxDP=3.10D-03 DE=-3.46D-05 OVMax= 5.23D-03

 Cycle  17  Pass 1  IDiag  3:
 E= -1.14070890018058     Delta-E=       -0.000013539272 Rises=F Damp=F
 DIIS: error= 5.95D-05 at cycle  17 NSaved=  17.
 NSaved=17 IEnMin=17 EnMin= -1.14070890018058     IErMin=17 ErrMin= 5.95D-05
 ErrMax= 5.95D-05  0.00D+00 EMaxC= 1.00D-01 BMatC= 2.17D-07 BMatP= 5.54D-07
 IDIUse=1 WtCom= 1.00D+00 WtEn= 0.00D+00
 Coeff-Com: -0.375D-04-0.556D-04-0.224D-04 0.224D-03 0.143D-03-0.570D-03
 Coeff-Com:  0.727D-03 0.128D-02-0.267D-02-0.278D-02 0.582D-02 0.734D-02
 Coeff-Com:  0.130D-01 0.792D-02-0.166D+00-0.356D+00 0.149D+01
 Coeff:     -0.375D-04-0.556D-04-0.224D-04 0.224D-03 0.143D-03-0.570D-03
 Coeff:      0.727D-03 0.128D-02-0.267D-02-0.278D-02 0.582D-02 0.734D-02
 Coeff:      0.130D-01 0.792D-02-0.166D+00-0.356D+00 0.149D+01
 Gap=     0.150 Goal=   None    Shift=    0.000
 RMSDP=8.01D-05 MaxDP=1.87D-03 DE=-1.35D-05 OVMax= 2.73D-03

 Cycle  18  Pass 1  IDiag  3:
 E= -1.14071393383506     Delta-E=       -0.000005033654 Rises=F Damp=F
 DIIS: error= 3.08D-05 at cycle  18 NSaved=  18.
 NSaved=18 IEnMin=18 EnMin= -1.14071393383506     IErMin=18 ErrMin= 3.08D-05
 ErrMax= 3.08D-05  0.00D+00 EMaxC= 1.00D-01 BMatC= 8.52D-08 BMatP= 2.17D-07
 IDIUse=1 WtCom= 1.00D+00 WtEn= 0.00D+00
 Coeff-Com: -0.123D-05-0.422D-04 0.850D-05 0.658D-04 0.253D-03 0.161D-03
 Coeff-Com: -0.113D-02-0.131D-03 0.262D-02-0.500D-02 0.987D-03-0.714D-03
 Coeff-Com:  0.109D-01 0.581D-02 0.403D-01-0.149D+00-0.436D+00 0.153D+01
 Coeff:     -0.123D-05-0.422D-04 0.850D-05 0.658D-04 0.253D-03 0.161D-03
 Coeff:     -0.113D-02-0.131D-03 0.262D-02-0.500D-02 0.987D-03-0.714D-03
 Coeff:      0.109D-01 0.581D-02 0.403D-01-0.149D+00-0.436D+00 0.153D+01
 Gap=     0.150 Goal=   None    Shift=    0.000
 RMSDP=4.58D-05 MaxDP=9.99D-04 DE=-5.03D-06 OVMax= 1.26D-03

 Cycle  19  Pass 1  IDiag  3:
 E= -1.14071580233986     Delta-E=       -0.000001868505 Rises=F Damp=F
 DIIS: error= 2.51D-05 at cycle  19 NSaved=  19.
 NSaved=19 IEnMin=19 EnMin= -1.14071580233986     IErMin=19 ErrMin= 2.51D-05
 ErrMax= 2.51D-05  0.00D+00 EMaxC= 1.00D-01 BMatC= 3.67D-08 BMatP= 8.52D-08
 IDIUse=1 WtCom= 1.00D+00 WtEn= 0.00D+00
 Coeff-Com:  0.792D-06-0.353D-04 0.158D-04-0.273D-04 0.281D-03-0.147D-03
 Coeff-Com: -0.791D-03 0.119D-02-0.275D-03 0.107D-02-0.497D-03-0.541D-02
 Coeff-Com:  0.452D-02 0.164D-02 0.107D-01 0.612D-01-0.102D+00-0.646D+00
 Coeff-Com:  0.167D+01
 Coeff:      0.792D-06-0.353D-04 0.158D-04-0.273D-04 0.281D-03-0.147D-03
 Coeff:     -0.791D-03 0.119D-02-0.275D-03 0.107D-02-0.497D-03-0.541D-02
 Coeff:      0.452D-02 0.164D-02 0.107D-01 0.612D-01-0.102D+00-0.646D+00
 Coeff:      0.167D+01
 Gap=     0.150 Goal=   None    Shift=    0.000
 RMSDP=2.72D-05 MaxDP=4.50D-04 DE=-1.87D-06 OVMax= 8.45D-04

 Cycle  20  Pass 1  IDiag  3:
 E= -1.14071662826177     Delta-E=       -0.000000825922 Rises=F Damp=F
 DIIS: error= 2.12D-05 at cycle  20 NSaved=  20.
 NSaved=20 IEnMin=20 EnMin= -1.14071662826177     IErMin=20 ErrMin= 2.12D-05
 ErrMax= 2.12D-05  0.00D+00 EMaxC= 1.00D-01 BMatC= 1.80D-08 BMatP= 3.67D-08
 IDIUse=1 WtCom= 1.00D+00 WtEn= 0.00D+00
 Coeff-Com: -0.113D-04-0.157D-04 0.154D-04 0.678D-04-0.149D-03 0.323D-03
 Coeff-Com: -0.399D-03-0.220D-03 0.184D-02-0.149D-02-0.527D-03-0.156D-02
 Coeff-Com: -0.330D-02 0.448D-02 0.682D-02-0.112D-01 0.703D-01-0.224D-01
 Coeff-Com: -0.823D+00 0.178D+01
 Coeff:     -0.113D-04-0.157D-04 0.154D-04 0.678D-04-0.149D-03 0.323D-03
 Coeff:     -0.399D-03-0.220D-03 0.184D-02-0.149D-02-0.527D-03-0.156D-02
 Coeff:     -0.330D-02 0.448D-02 0.682D-02-0.112D-01 0.703D-01-0.224D-01
 Coeff:     -0.823D+00 0.178D+01
 Gap=     0.150 Goal=   None    Shift=    0.000
 RMSDP=1.90D-05 MaxDP=3.13D-04 DE=-8.26D-07 OVMax= 6.38D-04

 Cycle  21  Pass 1  IDiag  3:
 E= -1.14071704797789     Delta-E=       -0.000000419716 Rises=F Damp=F
 DIIS: error= 1.66D-05 at cycle  21 NSaved=  20.
 NSaved=20 IEnMin=20 EnMin= -1.14071704797789     IErMin=20 ErrMin= 1.66D-05
 ErrMax= 1.66D-05  0.00D+00 EMaxC= 1.00D-01 BMatC= 9.05D-09 BMatP= 1.80D-08
 IDIUse=1 WtCom= 1.00D+00 WtEn= 0.00D+00
 Coeff-Com:  0.891D-06 0.646D-05 0.335D-04-0.453D-04 0.229D-05-0.130D-05
 Coeff-Com: -0.311D-03 0.520D-03-0.936D-03 0.261D-02-0.179D-02-0.125D-02
 Coeff-Com: -0.620D-03-0.497D-04-0.258D-03 0.154D-01 0.753D-01-0.574D-01
 Coeff-Com: -0.868D+00 0.184D+01
 Coeff:      0.891D-06 0.646D-05 0.335D-04-0.453D-04 0.229D-05-0.130D-05
 Coeff:     -0.311D-03 0.520D-03-0.936D-03 0.261D-02-0.179D-02-0.125D-02
 Coeff:     -0.620D-03-0.497D-04-0.258D-03 0.154D-01 0.753D-01-0.574D-01
 Coeff:     -0.868D+00 0.184D+01
 Gap=     0.150 Goal=   None    Shift=    0.000
 RMSDP=1.41D-05 MaxDP=2.71D-04 DE=-4.20D-07 OVMax= 4.99D-04

 Cycle  22  Pass 1  IDiag  3:
 E= -1.14071727893133     Delta-E=       -0.000000230953 Rises=F Damp=F
 DIIS: error= 1.21D-05 at cycle  22 NSaved=  20.
 NSaved=20 IEnMin=20 EnMin= -1.14071727893133     IErMin=20 ErrMin= 1.21D-05
 ErrMax= 1.21D-05  0.00D+00 EMaxC= 1.00D-01 BMatC= 4.63D-09 BMatP= 9.05D-09
 IDIUse=1 WtCom= 1.00D+00 WtEn= 0.00D+00
 Coeff-Com:  0.203D-06 0.105D-04-0.128D-03 0.198D-03-0.117D-03-0.287D-03
 Coeff-Com: -0.121D-03 0.148D-02-0.809D-03-0.108D-02 0.816D-03 0.356D-03
 Coeff-Com: -0.166D-04 0.462D-03-0.146D-01 0.526D-02 0.153D+00-0.184D+00
 Coeff-Com: -0.752D+00 0.179D+01
 Coeff:      0.203D-06 0.105D-04-0.128D-03 0.198D-03-0.117D-03-0.287D-03
 Coeff:     -0.121D-03 0.148D-02-0.809D-03-0.108D-02 0.816D-03 0.356D-03
 Coeff:     -0.166D-04 0.462D-03-0.146D-01 0.526D-02 0.153D+00-0.184D+00
 Coeff:     -0.752D+00 0.179D+01
 Gap=     0.150 Goal=   None    Shift=    0.000
 RMSDP=1.07D-05 MaxDP=2.23D-04 DE=-2.31D-07 OVMax= 4.00D-04

 Cycle  23  Pass 1  IDiag  3:
 E= -1.14071740269890     Delta-E=       -0.000000123768 Rises=F Damp=F
 DIIS: error= 8.45D-06 at cycle  23 NSaved=  20.
 NSaved=20 IEnMin=20 EnMin= -1.14071740269890     IErMin=20 ErrMin= 8.45D-06
 ErrMax= 8.45D-06  0.00D+00 EMaxC= 1.00D-01 BMatC= 2.42D-09 BMatP= 4.63D-09
 IDIUse=1 WtCom= 1.00D+00 WtEn= 0.00D+00
 Coeff-Com:  0.197D-05 0.253D-04 0.110D-03-0.373D-03 0.350D-04 0.933D-03
 Coeff-Com: -0.999D-03 0.497D-03-0.901D-03 0.266D-03 0.168D-02-0.899D-04
 Coeff-Com: -0.381D-02-0.965D-02 0.208D-01 0.908D-02 0.569D-01-0.146D+00
 Coeff-Com: -0.618D+00 0.169D+01
 Coeff:      0.197D-05 0.253D-04 0.110D-03-0.373D-03 0.350D-04 0.933D-03
 Coeff:     -0.999D-03 0.497D-03-0.901D-03 0.266D-03 0.168D-02-0.899D-04
 Coeff:     -0.381D-02-0.965D-02 0.208D-01 0.908D-02 0.569D-01-0.146D+00
 Coeff:     -0.618D+00 0.169D+01
 Gap=     0.150 Goal=   None    Shift=    0.000
 RMSDP=7.79D-06 MaxDP=1.69D-04 DE=-1.24D-07 OVMax= 3.01D-04

 Cycle  24  Pass 1  IDiag  3:
 E= -1.14071746648074     Delta-E=       -0.000000063782 Rises=F Damp=F
 DIIS: error= 5.69D-06 at cycle  24 NSaved=  20.
 NSaved=20 IEnMin=20 EnMin= -1.14071746648074     IErMin=20 ErrMin= 5.69D-06
 ErrMax= 5.69D-06  0.00D+00 EMaxC= 1.00D-01 BMatC= 1.29D-09 BMatP= 2.42D-09
 IDIUse=1 WtCom= 1.00D+00 WtEn= 0.00D+00
 Coeff-Com: -0.142D-04 0.980D-04-0.137D-03 0.656D-04 0.108D-03-0.154D-03
 Coeff-Com: -0.175D-03 0.766D-04 0.159D-03-0.559D-03-0.487D-03 0.302D-02
 Coeff-Com: -0.385D-02-0.974D-02 0.160D-01-0.127D-02 0.957D-01-0.248D+00
 Coeff-Com: -0.528D+00 0.168D+01
 Coeff:     -0.142D-04 0.980D-04-0.137D-03 0.656D-04 0.108D-03-0.154D-03
 Coeff:     -0.175D-03 0.766D-04 0.159D-03-0.559D-03-0.487D-03 0.302D-02
 Coeff:     -0.385D-02-0.974D-02 0.160D-01-0.127D-02 0.957D-01-0.248D+00
 Coeff:     -0.528D+00 0.168D+01
 Gap=     0.150 Goal=   None    Shift=    0.000
 RMSDP=5.97D-06 MaxDP=1.35D-04 DE=-6.38D-08 OVMax= 2.46D-04

 Cycle  25  Pass 1  IDiag  3:
 E= -1.14071750072935     Delta-E=       -0.000000034249 Rises=F Damp=F
 DIIS: error= 3.57D-06 at cycle  25 NSaved=  20.
 NSaved=20 IEnMin=20 EnMin= -1.14071750072935     IErMin=20 ErrMin= 3.57D-06
 ErrMax= 3.57D-06  0.00D+00 EMaxC= 1.00D-01 BMatC= 6.66D-10 BMatP= 1.29D-09
 IDIUse=1 WtCom= 1.00D+00 WtEn= 0.00D+00
 Coeff-Com:  0.301D-04-0.114D-03 0.212D-03-0.165D-04-0.258D-04-0.329D-03
 Coeff-Com: -0.212D-03 0.314D-03 0.769D-03-0.301D-03-0.111D-02 0.919D-03
 Coeff-Com: -0.201D-02-0.119D-01 0.316D-01 0.977D-02 0.529D-01-0.283D+00
 Coeff-Com: -0.482D+00 0.168D+01
 Coeff:      0.301D-04-0.114D-03 0.212D-03-0.165D-04-0.258D-04-0.329D-03
 Coeff:     -0.212D-03 0.314D-03 0.769D-03-0.301D-03-0.111D-02 0.919D-03
 Coeff:     -0.201D-02-0.119D-01 0.316D-01 0.977D-02 0.529D-01-0.283D+00
 Coeff:     -0.482D+00 0.168D+01
 Gap=     0.150 Goal=   None    Shift=    0.000
 RMSDP=4.65D-06 MaxDP=1.02D-04 DE=-3.42D-08 OVMax= 1.91D-04

 Cycle  26  Pass 1  IDiag  3:
 E= -1.14071751859956     Delta-E=       -0.000000017870 Rises=F Damp=F
 DIIS: error= 1.96D-06 at cycle  26 NSaved=  20.
 NSaved=20 IEnMin=20 EnMin= -1.14071751859956     IErMin=20 ErrMin= 1.96D-06
 ErrMax= 1.96D-06  0.00D+00 EMaxC= 1.00D-01 BMatC= 3.13D-10 BMatP= 6.66D-10
 IDIUse=1 WtCom= 1.00D+00 WtEn= 0.00D+00
 Coeff-Com: -0.708D-04 0.683D-04 0.151D-03 0.970D-05-0.325D-03-0.170D-03
 Coeff-Com:  0.161D-03 0.492D-03 0.316D-03 0.930D-03-0.341D-02 0.124D-03
 Coeff-Com: -0.144D-02-0.993D-02 0.375D-01 0.121D-01 0.371D-01-0.295D+00
 Coeff-Com: -0.353D+00 0.157D+01
 Coeff:     -0.708D-04 0.683D-04 0.151D-03 0.970D-05-0.325D-03-0.170D-03
 Coeff:      0.161D-03 0.492D-03 0.316D-03 0.930D-03-0.341D-02 0.124D-03
 Coeff:     -0.144D-02-0.993D-02 0.375D-01 0.121D-01 0.371D-01-0.295D+00
 Coeff:     -0.353D+00 0.157D+01
 Gap=     0.150 Goal=   None    Shift=    0.000
 RMSDP=3.12D-06 MaxDP=6.40D-05 DE=-1.79D-08 OVMax= 1.24D-04

 Cycle  27  Pass 1  IDiag  3:
 E= -1.14071752616587     Delta-E=       -0.000000007566 Rises=F Damp=F
 DIIS: error= 1.14D-06 at cycle  27 NSaved=  20.
 NSaved=20 IEnMin=20 EnMin= -1.14071752616587     IErMin=20 ErrMin= 1.14D-06
 ErrMax= 1.14D-06  0.00D+00 EMaxC= 1.00D-01 BMatC= 1.18D-10 BMatP= 3.13D-10
 IDIUse=1 WtCom= 1.00D+00 WtEn= 0.00D+00
 Coeff-Com:  0.993D-04-0.140D-03 0.283D-04-0.706D-04 0.155D-03 0.356D-04
 Coeff-Com:  0.577D-04-0.456D-03 0.462D-03 0.193D-02-0.141D-02 0.170D-02
 Coeff-Com: -0.137D-01 0.645D-02 0.269D-01 0.110D-01 0.323D-01-0.260D+00
 Coeff-Com: -0.339D+00 0.153D+01
 Coeff:      0.993D-04-0.140D-03 0.283D-04-0.706D-04 0.155D-03 0.356D-04
 Coeff:      0.577D-04-0.456D-03 0.462D-03 0.193D-02-0.141D-02 0.170D-02
 Coeff:     -0.137D-01 0.645D-02 0.269D-01 0.110D-01 0.323D-01-0.260D+00
 Coeff:     -0.339D+00 0.153D+01
 Gap=     0.150 Goal=   None    Shift=    0.000
 RMSDP=1.94D-06 MaxDP=3.50D-05 DE=-7.57D-09 OVMax= 6.69D-05

 Cycle  28  Pass 1  IDiag  3:
 E= -1.14071752882626     Delta-E=       -0.000000002660 Rises=F Damp=F
 DIIS: error= 6.78D-07 at cycle  28 NSaved=  20.
 NSaved=20 IEnMin=20 EnMin= -1.14071752882626     IErMin=20 ErrMin= 6.78D-07
 ErrMax= 6.78D-07  0.00D+00 EMaxC= 1.00D-01 BMatC= 3.38D-11 BMatP= 1.18D-10
 IDIUse=1 WtCom= 1.00D+00 WtEn= 0.00D+00
 Coeff-Com:  0.425D-04-0.600D-04-0.615D-04 0.586D-05 0.164D-03 0.329D-04
 Coeff-Com:  0.963D-05 0.166D-03-0.993D-03 0.134D-03 0.965D-03 0.209D-02
 Coeff-Com: -0.596D-02 0.220D-02 0.508D-02 0.677D-02 0.517D-01-0.155D+00
 Coeff-Com: -0.376D+00 0.147D+01
 Coeff:      0.425D-04-0.600D-04-0.615D-04 0.586D-05 0.164D-03 0.329D-04
 Coeff:      0.963D-05 0.166D-03-0.993D-03 0.134D-03 0.965D-03 0.209D-02
 Coeff:     -0.596D-02 0.220D-02 0.508D-02 0.677D-02 0.517D-01-0.155D+00
 Coeff:     -0.376D+00 0.147D+01
 Gap=     0.150 Goal=   None    Shift=    0.000
 RMSDP=9.01D-07 MaxDP=1.60D-05 DE=-2.66D-09 OVMax= 2.45D-05

 Cycle  29  Pass 1  IDiag  3:
 E= -1.14071752945665     Delta-E=       -0.000000000630 Rises=F Damp=F
 DIIS: error= 3.85D-07 at cycle  29 NSaved=  20.
 NSaved=20 IEnMin=20 EnMin= -1.14071752945665     IErMin=20 ErrMin= 3.85D-07
 ErrMax= 3.85D-07  0.00D+00 EMaxC= 1.00D-01 BMatC= 7.73D-12 BMatP= 3.38D-11
 IDIUse=1 WtCom= 1.00D+00 WtEn= 0.00D+00
 Coeff-Com:  0.301D-04-0.366D-04 0.658D-04-0.162D-03-0.818D-04 0.198D-03
 Coeff-Com: -0.476D-04-0.160D-03 0.430D-03 0.791D-04-0.111D-02-0.307D-03
 Coeff-Com: -0.278D-02 0.323D-02 0.803D-02-0.196D-02 0.449D-01-0.719D-01
 Coeff-Com: -0.481D+00 0.150D+01
 Coeff:      0.301D-04-0.366D-04 0.658D-04-0.162D-03-0.818D-04 0.198D-03
 Coeff:     -0.476D-04-0.160D-03 0.430D-03 0.791D-04-0.111D-02-0.307D-03
 Coeff:     -0.278D-02 0.323D-02 0.803D-02-0.196D-02 0.449D-01-0.719D-01
 Coeff:     -0.481D+00 0.150D+01
 Gap=     0.150 Goal=   None    Shift=    0.000
 RMSDP=3.59D-07 MaxDP=5.19D-06 DE=-6.30D-10 OVMax= 7.47D-06

 Cycle  30  Pass 1  IDiag  3:
 E= -1.14071752958250     Delta-E=       -0.000000000126 Rises=F Damp=F
 DIIS: error= 1.92D-07 at cycle  30 NSaved=  20.
 NSaved=20 IEnMin=20 EnMin= -1.14071752958250     IErMin=20 ErrMin= 1.92D-07
 ErrMax= 1.92D-07  0.00D+00 EMaxC= 1.00D-01 BMatC= 1.67D-12 BMatP= 7.73D-12
 IDIUse=1 WtCom= 1.00D+00 WtEn= 0.00D+00
 Coeff-Com: -0.192D-04-0.274D-04 0.121D-03-0.279D-04-0.974D-04-0.131D-04
 Coeff-Com: -0.262D-04-0.150D-03-0.902D-04 0.453D-03-0.639D-03 0.275D-03
 Coeff-Com: -0.189D-02-0.772D-03 0.601D-02-0.778D-02 0.352D-01 0.411D-01
 Coeff-Com: -0.657D+00 0.158D+01
 Coeff:     -0.192D-04-0.274D-04 0.121D-03-0.279D-04-0.974D-04-0.131D-04
 Coeff:     -0.262D-04-0.150D-03-0.902D-04 0.453D-03-0.639D-03 0.275D-03
 Coeff:     -0.189D-02-0.772D-03 0.601D-02-0.778D-02 0.352D-01 0.411D-01
 Coeff:     -0.657D+00 0.158D+01
 Gap=     0.150 Goal=   None    Shift=    0.000
 RMSDP=1.49D-07 MaxDP=1.95D-06 DE=-1.26D-10 OVMax= 3.84D-06

 Cycle  31  Pass 1  IDiag  3:
 E= -1.14071752960774     Delta-E=       -0.000000000025 Rises=F Damp=F
 DIIS: error= 8.68D-08 at cycle  31 NSaved=  20.
 NSaved=20 IEnMin=20 EnMin= -1.14071752960774     IErMin=20 ErrMin= 8.68D-08
 ErrMax= 8.68D-08  0.00D+00 EMaxC= 1.00D-01 BMatC= 3.57D-13 BMatP= 1.67D-12
 IDIUse=1 WtCom= 1.00D+00 WtEn= 0.00D+00
 Coeff-Com:  0.132D-04-0.339D-04 0.950D-05 0.739D-04-0.866D-04 0.727D-04
 Coeff-Com:  0.698D-04-0.314D-03 0.675D-03-0.218D-03-0.403D-03-0.588D-05
 Coeff-Com: -0.324D-03-0.164D-02 0.337D-02-0.356D-02 0.363D-01-0.394D-02
 Coeff-Com: -0.494D+00 0.146D+01
 Coeff:      0.132D-04-0.339D-04 0.950D-05 0.739D-04-0.866D-04 0.727D-04
 Coeff:      0.698D-04-0.314D-03 0.675D-03-0.218D-03-0.403D-03-0.588D-05
 Coeff:     -0.324D-03-0.164D-02 0.337D-02-0.356D-02 0.363D-01-0.394D-02
 Coeff:     -0.494D+00 0.146D+01
 Gap=     0.150 Goal=   None    Shift=    0.000
 RMSDP=5.70D-08 MaxDP=9.04D-07 DE=-2.52D-11 OVMax= 1.71D-06

 Cycle  32  Pass 1  IDiag  3:
 E= -1.14071752961297     Delta-E=       -0.000000000005 Rises=F Damp=F
 DIIS: error= 4.20D-08 at cycle  32 NSaved=  20.
 NSaved=20 IEnMin=20 EnMin= -1.14071752961297     IErMin=20 ErrMin= 4.20D-08
 ErrMax= 4.20D-08  0.00D+00 EMaxC= 1.00D-01 BMatC= 9.86D-14 BMatP= 3.57D-13
 IDIUse=1 WtCom= 1.00D+00 WtEn= 0.00D+00
 Coeff-Com:  0.664D-05-0.284D-05-0.245D-04 0.763D-04-0.886D-04-0.816D-04
 Coeff-Com:  0.318D-03-0.404D-03 0.316D-03-0.284D-03 0.854D-03-0.704D-03
 Coeff-Com: -0.456D-03 0.790D-03-0.230D-02-0.138D-01 0.107D+00-0.204D+00
 Coeff-Com: -0.240D+00 0.135D+01
 Coeff:      0.664D-05-0.284D-05-0.245D-04 0.763D-04-0.886D-04-0.816D-04
 Coeff:      0.318D-03-0.404D-03 0.316D-03-0.284D-03 0.854D-03-0.704D-03
 Coeff:     -0.456D-03 0.790D-03-0.230D-02-0.138D-01 0.107D+00-0.204D+00
 Coeff:     -0.240D+00 0.135D+01
 Gap=     0.150 Goal=   None    Shift=    0.000
 RMSDP=2.92D-08 MaxDP=5.56D-07 DE=-5.23D-12 OVMax= 9.71D-07

 Cycle  33  Pass 1  IDiag  3:
 E= -1.14071752961320     Delta-E=       -0.000000000000 Rises=F Damp=F
 DIIS: error= 2.54D-08 at cycle  33 NSaved=  20.
 NSaved=20 IEnMin=20 EnMin= -1.14071752961320     IErMin=20 ErrMin= 2.54D-08
 ErrMax= 2.54D-08  0.00D+00 EMaxC= 1.00D-01 BMatC= 3.23D-14 BMatP= 9.86D-14
 IDIUse=1 WtCom= 1.00D+00 WtEn= 0.00D+00
 Coeff-Com: -0.439D-06 0.114D-04-0.303D-04 0.317D-04 0.554D-04-0.184D-03
 Coeff-Com:  0.202D-03-0.156D-03 0.191D-03-0.307D-03 0.367D-03 0.196D-03
 Coeff-Com: -0.923D-03 0.131D-03 0.280D-02-0.343D-01 0.160D+00-0.271D+00
 Coeff-Com: -0.416D+00 0.156D+01
 Coeff:     -0.439D-06 0.114D-04-0.303D-04 0.317D-04 0.554D-04-0.184D-03
 Coeff:      0.202D-03-0.156D-03 0.191D-03-0.307D-03 0.367D-03 0.196D-03
 Coeff:     -0.923D-03 0.131D-03 0.280D-02-0.343D-01 0.160D+00-0.271D+00
 Coeff:     -0.416D+00 0.156D+01
 Gap=     0.150 Goal=   None    Shift=    0.000
 RMSDP=2.10D-08 MaxDP=4.49D-07 DE=-2.27D-13 OVMax= 7.36D-07

 Cycle  34  Pass 1  IDiag  3:
 E= -1.14071752961286     Delta-E=        0.000000000000 Rises=F Damp=F
 DIIS: error= 1.51D-08 at cycle  34 NSaved=  20.
 NSaved=20 IEnMin=19 EnMin= -1.14071752961320     IErMin=20 ErrMin= 1.51D-08
 ErrMax= 1.51D-08  0.00D+00 EMaxC= 1.00D-01 BMatC= 1.03D-14 BMatP= 3.23D-14
 IDIUse=1 WtCom= 1.00D+00 WtEn= 0.00D+00
 Large coefficients: NSaved= 20 BigCof=    0.00 CofMax=   10.00 Det=-2.98D-15
 Inversion failed.  Reducing to 19 matrices.
 Large coefficients: NSaved= 19 BigCof=    0.00 CofMax=   10.00 Det=-2.99D-15
 Inversion failed.  Reducing to 18 matrices.
 Large coefficients: NSaved= 18 BigCof=    0.00 CofMax=   10.00 Det=-3.02D-15
 Inversion failed.  Reducing to 17 matrices.
 Large coefficients: NSaved= 17 BigCof=    0.00 CofMax=   10.00 Det=-3.02D-15
 Inversion failed.  Reducing to 16 matrices.
 Large coefficients: NSaved= 16 BigCof=    0.00 CofMax=   10.00 Det=-3.03D-15
 Inversion failed.  Reducing to 15 matrices.
 Coeff-Com:  0.683D-05 0.783D-04-0.304D-03 0.253D-03 0.944D-04-0.806D-04
 Coeff-Com: -0.488D-04-0.762D-03 0.173D-02-0.221D-02-0.245D-01 0.138D+00
 Coeff-Com: -0.225D+00-0.497D+00 0.161D+01
 Coeff:      0.683D-05 0.783D-04-0.304D-03 0.253D-03 0.944D-04-0.806D-04
 Coeff:     -0.488D-04-0.762D-03 0.173D-02-0.221D-02-0.245D-01 0.138D+00
 Coeff:     -0.225D+00-0.497D+00 0.161D+01
 Gap=     0.150 Goal=   None    Shift=    0.000
 RMSDP=1.47D-08 MaxDP=3.35D-07 DE= 3.41D-13 OVMax= 5.68D-07

 Cycle  35  Pass 1  IDiag  1:
 E= -1.14071752961479     Delta-E=       -0.000000000002 Rises=F Damp=F
 DIIS: error= 6.77D-09 at cycle  35 NSaved=  16.
 NSaved=16 IEnMin=16 EnMin= -1.14071752961479     IErMin=16 ErrMin= 6.77D-09
 ErrMax= 6.77D-09  0.00D+00 EMaxC= 1.00D-01 BMatC= 2.77D-15 BMatP= 1.03D-14
 IDIUse=1 WtCom= 1.00D+00 WtEn= 0.00D+00
 Large coefficients: NSaved= 16 BigCof=    0.00 CofMax=   10.00 Det=-9.13D-16
 Inversion failed.  Reducing to 15 matrices.
 Coeff-Com: -0.323D-04 0.799D-04-0.505D-04-0.248D-04 0.492D-04-0.157D-03
 Coeff-Com:  0.423D-03-0.360D-03-0.130D-02 0.466D-02-0.120D-01 0.462D-01
 Coeff-Com: -0.690D-01-0.376D+00 0.141D+01
 Coeff:     -0.323D-04 0.799D-04-0.505D-04-0.248D-04 0.492D-04-0.157D-03
 Coeff:      0.423D-03-0.360D-03-0.130D-02 0.466D-02-0.120D-01 0.462D-01
 Coeff:     -0.690D-01-0.376D+00 0.141D+01
 RMSDP=6.84D-09 MaxDP=1.58D-07 DE=-1.93D-12 OVMax= 5.68D-07

 Cycle  36  Pass 2  IDiag  1:
 SCF Done:  E(RPM6) =  -1.14071752961     A.U. after   36 cycles
            NFock= 35  Conv=0.68D-08     -V/T= 0.9950
 KE=-2.272491427697D+02 PE=-1.342214322178D+03 EE= 7.239865702555D+02
 Leave Link  502 at Wed Jan 12 16:08:20 2022, MaxMem=   402653184 cpu:             243.0 elap:              43.7
 (Enter /work/01114/jfonner/frontera/gaussian/16rC.01/g16/l601.exe)
 Copying SCF densities to generalized density rwf, IOpCl= 0 IROHF=0.

 **********************************************************************

            Population analysis using the SCF Density.

 **********************************************************************

 Alpha  occ. eigenvalues --   -1.72942  -1.68951  -1.68387  -1.67048  -1.60862
 Alpha  occ. eigenvalues --   -1.60191  -1.58129  -1.56948  -1.56780  -1.55772
 Alpha  occ. eigenvalues --   -1.50764  -1.49416  -1.43957  -1.42686  -1.38824
 Alpha  occ. eigenvalues --   -1.34162  -1.30382  -1.24550  -1.21385  -1.19375
 Alpha  occ. eigenvalues --   -1.15465  -1.13300  -1.13026  -1.11133  -1.08901
 Alpha  occ. eigenvalues --   -1.08379  -1.07191  -1.06391  -1.03850  -1.03113
 Alpha  occ. eigenvalues --   -1.02092  -1.01498  -1.00830  -0.99721  -0.98870
 Alpha  occ. eigenvalues --   -0.97985  -0.97584  -0.94137  -0.93641  -0.92688
 Alpha  occ. eigenvalues --   -0.91400  -0.90834  -0.89930  -0.87493  -0.87344
 Alpha  occ. eigenvalues --   -0.86356  -0.85278  -0.83549  -0.83263  -0.82999
 Alpha  occ. eigenvalues --   -0.78406  -0.76358
 Alpha virt. eigenvalues --   -0.64271  -0.61493  -0.60352  -0.56851  -0.56412
 Alpha virt. eigenvalues --   -0.54907  -0.53250  -0.51435  -0.49607  -0.49003
 Alpha virt. eigenvalues --   -0.48426  -0.45646  -0.45356  -0.43084  -0.42051
 Alpha virt. eigenvalues --   -0.41666  -0.41516  -0.40855  -0.39848  -0.39182
 Alpha virt. eigenvalues --   -0.38672  -0.38283  -0.36542  -0.36202  -0.35233
 Alpha virt. eigenvalues --   -0.34931  -0.33902  -0.33026  -0.32331  -0.31653
 Alpha virt. eigenvalues --   -0.30297  -0.28549  -0.27768  -0.24753  -0.21018
 Alpha virt. eigenvalues --   -0.19412  -0.03856
          Condensed to atoms (all electrons):
               1          2          3          4          5          6
     1  C    3.511021   0.000000   0.000000   0.000000   0.000000   0.000000
     2  O    0.000000   6.197518   0.000000   0.000000   0.000000   0.000000
     3  N    0.000000   0.000000   5.303310   0.000000   0.000000   0.000000
     4  C    0.000000   0.000000   0.000000   3.853034   0.000000   0.000000
     5  C    0.000000   0.000000   0.000000   0.000000   3.501088   0.000000
     6  O    0.000000   0.000000   0.000000   0.000000   0.000000   6.284803
     7  N    0.000000   0.000000   0.000000   0.000000   0.000000   0.000000
     8  C    0.000000   0.000000   0.000000   0.000000   0.000000   0.000000
     9  C    0.000000   0.000000   0.000000   0.000000   0.000000   0.000000
    10  O    0.000000   0.000000   0.000000   0.000000   0.000000   0.000000
    11  C    0.000000   0.000000   0.000000   0.000000   0.000000   0.000000
    12  O    0.000000   0.000000   0.000000   0.000000   0.000000   0.000000
    13  N    0.000000   0.000000   0.000000   0.000000   0.000000   0.000000
    14  C    0.000000   0.000000   0.000000   0.000000   0.000000   0.000000
    15  C    0.000000   0.000000   0.000000   0.000000   0.000000   0.000000
    16  O    0.000000   0.000000   0.000000   0.000000   0.000000   0.000000
    17  N    0.000000   0.000000   0.000000   0.000000   0.000000   0.000000
    18  C    0.000000   0.000000   0.000000   0.000000   0.000000   0.000000
    19  C    0.000000   0.000000   0.000000   0.000000   0.000000   0.000000
    20  O    0.000000   0.000000   0.000000   0.000000   0.000000   0.000000
    21  C    0.000000   0.000000   0.000000   0.000000   0.000000   0.000000
    22  H    0.000000   0.000000   0.000000   0.000000   0.000000   0.000000
    23  H    0.000000   0.000000   0.000000   0.000000   0.000000   0.000000
    24  H    0.000000   0.000000   0.000000   0.000000   0.000000   0.000000
    25  H    0.000000   0.000000   0.000000   0.000000   0.000000   0.000000
    26  H    0.000000   0.000000   0.000000   0.000000   0.000000   0.000000
               7          8          9         10         11         12
     1  C    0.000000   0.000000   0.000000   0.000000   0.000000   0.000000
     2  O    0.000000   0.000000   0.000000   0.000000   0.000000   0.000000
     3  N    0.000000   0.000000   0.000000   0.000000   0.000000   0.000000
     4  C    0.000000   0.000000   0.000000   0.000000   0.000000   0.000000
     5  C    0.000000   0.000000   0.000000   0.000000   0.000000   0.000000
     6  O    0.000000   0.000000   0.000000   0.000000   0.000000   0.000000
     7  N    5.380516   0.000000   0.000000   0.000000   0.000000   0.000000
     8  C    0.000000   3.756647   0.000000   0.000000   0.000000   0.000000
     9  C    0.000000   0.000000   3.611663   0.000000   0.000000   0.000000
    10  O    0.000000   0.000000   0.000000   5.964091   0.000000   0.000000
    11  C    0.000000   0.000000   0.000000   0.000000   3.562921   0.000000
    12  O    0.000000   0.000000   0.000000   0.000000   0.000000   6.438716
    13  N    0.000000   0.000000   0.000000   0.000000   0.000000   0.000000
    14  C    0.000000   0.000000   0.000000   0.000000   0.000000   0.000000
    15  C    0.000000   0.000000   0.000000   0.000000   0.000000   0.000000
    16  O    0.000000   0.000000   0.000000   0.000000   0.000000   0.000000
    17  N    0.000000   0.000000   0.000000   0.000000   0.000000   0.000000
    18  C    0.000000   0.000000   0.000000   0.000000   0.000000   0.000000
    19  C    0.000000   0.000000   0.000000   0.000000   0.000000   0.000000
    20  O    0.000000   0.000000   0.000000   0.000000   0.000000   0.000000
    21  C    0.000000   0.000000   0.000000   0.000000   0.000000   0.000000
    22  H    0.000000   0.000000   0.000000   0.000000   0.000000   0.000000
    23  H    0.000000   0.000000   0.000000   0.000000   0.000000   0.000000
    24  H    0.000000   0.000000   0.000000   0.000000   0.000000   0.000000
    25  H    0.000000   0.000000   0.000000   0.000000   0.000000   0.000000
    26  H    0.000000   0.000000   0.000000   0.000000   0.000000   0.000000
              13         14         15         16         17         18
     1  C    0.000000   0.000000   0.000000   0.000000   0.000000   0.000000
     2  O    0.000000   0.000000   0.000000   0.000000   0.000000   0.000000
     3  N    0.000000   0.000000   0.000000   0.000000   0.000000   0.000000
     4  C    0.000000   0.000000   0.000000   0.000000   0.000000   0.000000
     5  C    0.000000   0.000000   0.000000   0.000000   0.000000   0.000000
     6  O    0.000000   0.000000   0.000000   0.000000   0.000000   0.000000
     7  N    0.000000   0.000000   0.000000   0.000000   0.000000   0.000000
     8  C    0.000000   0.000000   0.000000   0.000000   0.000000   0.000000
     9  C    0.000000   0.000000   0.000000   0.000000   0.000000   0.000000
    10  O    0.000000   0.000000   0.000000   0.000000   0.000000   0.000000
    11  C    0.000000   0.000000   0.000000   0.000000   0.000000   0.000000
    12  O    0.000000   0.000000   0.000000   0.000000   0.000000   0.000000
    13  N    5.563242   0.000000   0.000000   0.000000   0.000000   0.000000
    14  C    0.000000   3.769574   0.000000   0.000000   0.000000   0.000000
    15  C    0.000000   0.000000   3.705516   0.000000   0.000000   0.000000
    16  O    0.000000   0.000000   0.000000   6.185494   0.000000   0.000000
    17  N    0.000000   0.000000   0.000000   0.000000   5.281808   0.000000
    18  C    0.000000   0.000000   0.000000   0.000000   0.000000   3.531471
    19  C    0.000000   0.000000   0.000000   0.000000   0.000000   0.000000
    20  O    0.000000   0.000000   0.000000   0.000000   0.000000   0.000000
    21  C    0.000000   0.000000   0.000000   0.000000   0.000000   0.000000
    22  H    0.000000   0.000000   0.000000   0.000000   0.000000   0.000000
    23  H    0.000000   0.000000   0.000000   0.000000   0.000000   0.000000
    24  H    0.000000   0.000000   0.000000   0.000000   0.000000   0.000000
    25  H    0.000000   0.000000   0.000000   0.000000   0.000000   0.000000
    26  H    0.000000   0.000000   0.000000   0.000000   0.000000   0.000000
              19         20         21         22         23         24
     1  C    0.000000   0.000000   0.000000   0.000000   0.000000   0.000000
     2  O    0.000000   0.000000   0.000000   0.000000   0.000000   0.000000
     3  N    0.000000   0.000000   0.000000   0.000000   0.000000   0.000000
     4  C    0.000000   0.000000   0.000000   0.000000   0.000000   0.000000
     5  C    0.000000   0.000000   0.000000   0.000000   0.000000   0.000000
     6  O    0.000000   0.000000   0.000000   0.000000   0.000000   0.000000
     7  N    0.000000   0.000000   0.000000   0.000000   0.000000   0.000000
     8  C    0.000000   0.000000   0.000000   0.000000   0.000000   0.000000
     9  C    0.000000   0.000000   0.000000   0.000000   0.000000   0.000000
    10  O    0.000000   0.000000   0.000000   0.000000   0.000000   0.000000
    11  C    0.000000   0.000000   0.000000   0.000000   0.000000   0.000000
    12  O    0.000000   0.000000   0.000000   0.000000   0.000000   0.000000
    13  N    0.000000   0.000000   0.000000   0.000000   0.000000   0.000000
    14  C    0.000000   0.000000   0.000000   0.000000   0.000000   0.000000
    15  C    0.000000   0.000000   0.000000   0.000000   0.000000   0.000000
    16  O    0.000000   0.000000   0.000000   0.000000   0.000000   0.000000
    17  N    0.000000   0.000000   0.000000   0.000000   0.000000   0.000000
    18  C    0.000000   0.000000   0.000000   0.000000   0.000000   0.000000
    19  C    4.117125   0.000000   0.000000   0.000000   0.000000   0.000000
    20  O    0.000000   6.051168   0.000000   0.000000   0.000000   0.000000
    21  C    0.000000   0.000000   2.974990   0.000000   0.000000   0.000000
    22  H    0.000000   0.000000   0.000000   0.869006   0.000000   0.000000
    23  H    0.000000   0.000000   0.000000   0.000000   1.748451   0.000000
    24  H    0.000000   0.000000   0.000000   0.000000   0.000000   0.294648
    25  H    0.000000   0.000000   0.000000   0.000000   0.000000   0.000000
    26  H    0.000000   0.000000   0.000000   0.000000   0.000000   0.000000
              25         26
     1  C    0.000000   0.000000
     2  O    0.000000   0.000000
     3  N    0.000000   0.000000
     4  C    0.000000   0.000000
     5  C    0.000000   0.000000
     6  O    0.000000   0.000000
     7  N    0.000000   0.000000
     8  C    0.000000   0.000000
     9  C    0.000000   0.000000
    10  O    0.000000   0.000000
    11  C    0.000000   0.000000
    12  O    0.000000   0.000000
    13  N    0.000000   0.000000
    14  C    0.000000   0.000000
    15  C    0.000000   0.000000
    16  O    0.000000   0.000000
    17  N    0.000000   0.000000
    18  C    0.000000   0.000000
    19  C    0.000000   0.000000
    20  O    0.000000   0.000000
    21  C    0.000000   0.000000
    22  H    0.000000   0.000000
    23  H    0.000000   0.000000
    24  H    0.000000   0.000000
    25  H    0.836774   0.000000
    26  H    0.000000   1.705407
 Mulliken charges:
               1
     1  C    0.488979
     2  O   -0.197518
     3  N   -0.303310
     4  C    0.146966
     5  C    0.498912
     6  O   -0.284803
     7  N   -0.380516
     8  C    0.243353
     9  C    0.388337
    10  O    0.035909
    11  C    0.437079
    12  O   -0.438716
    13  N   -0.563242
    14  C    0.230426
    15  C    0.294484
    16  O   -0.185494
    17  N   -0.281808
    18  C    0.468529
    19  C   -0.117125
    20  O   -0.051168
    21  C    1.025010
    22  H    0.130994
    23  H   -0.748451
    24  H    0.705352
    25  H    0.163226
    26  H   -0.705407
 Sum of Mulliken charges =   1.00000
 Mulliken charges with hydrogens summed into heavy atoms:
               1
     1  C    0.619973
     2  O   -0.197518
     3  N   -0.303310
     4  C    0.146966
     5  C    0.498912
     6  O   -0.284803
     7  N   -0.380516
     8  C    0.243353
     9  C   -0.360113
    10  O    0.035909
    11  C    0.437079
    12  O   -0.438716
    13  N   -0.563242
    14  C    0.935778
    15  C    0.294484
    16  O   -0.185494
    17  N   -0.281808
    18  C   -0.073652
    19  C   -0.117125
    20  O   -0.051168
    21  C    1.025010
 Charge=              1.0000 electrons
 Dipole moment (field-independent basis, Debye):
    X=              8.8225    Y=              5.4810    Z=             95.8478  Tot=             96.4089
 N-N= 8.443361771629D+02 E-N=-1.342214322400D+03  KE=-2.272491427697D+02
 Leave Link  601 at Wed Jan 12 16:08:21 2022, MaxMem=   402653184 cpu:               3.0 elap:               0.7
 (Enter /work/01114/jfonner/frontera/gaussian/16rC.01/g16/l9999.exe)

 Test job not archived.
 1\1\GINC-C204-029\SP\RPM6\ZDO\C11H5N4O6(1+)\SA748948\12-Jan-2022\0\\#p
  int=acc2e=12 pm6 charge nosymm\\Atom number=26\\1,1\C,0,3.006,0.047,1
 4.361\O,0,2.958,-1.169,14.515\N,0,3.481,0.887,15.262\C,0,4.163,0.392,1
 6.442\C,0,3.424,0.965,17.631\O,0,3.136,2.11,17.612\N,0,3.173,0.129,18.
 647\C,0,2.559,0.516,19.903\C,0,5.688,0.75,16.389\O,0,6.264,0.13,15.236
 \C,0,3.35,-0.122,21.014\O,0,3.366,-1.339,21.14\N,0,4.067,0.688,21.768\
 C,0,4.888,0.205,22.851\C,0,4.35,0.769,24.174\O,0,4.161,1.981,24.269\N,
 0,4.065,-0.12,25.151\C,0,3.72,0.313,26.515\C,0,1.138,-0.021,19.983\O,0
 ,0.393,0.394,18.824\C,0,0.486,0.501,21.167\H,0,2.70245299,0.50123899,1
 3.44098579\H,0,6.21369711,0.36219066,17.23643523\H,0,5.91042889,0.4886
 9974,22.71296516\H,0,4.57410357,0.19198451,27.14805793\H,0,2.86415355,
 -0.20219012,26.8984136\\Version=ES64L-G16RevC.01\HF=-1.1407175\RMSD=6.
 844e-09\Dipole=-3.0971365,1.4515276,0.5830866\PG=C01 [X(C11H5N4O6)]\\@


 THESE ARE THE TIMES THAT TRY MENS SOULS.
 THE SUMMER SOLDIER AND THE SUNSHINE PATRIOT WILL IN THIS CRISIS,
 SHRINK FROM THE SERVICE OF HIS COUNTRY.  BUT HE THAT STANDS NOW,
 DESERVES THE LOVE AND THANKS OF MAN AND WOMAN.
 TYRANNY, LIKE HELL, IS NOT EASILY CONQUERED,
 YET WE HAVE THIS CONSOLATION WITH US,
 THAT THE HARDER THE CONFLICT, THE MORE GLORIOUS THE TRIUMPH.
 WHAT WE OBTAIN TOO CHEAP, WE ESTEEM TOO LIGHTLY, 
 'TIS DEARNESS ONLY THAT GIVES EVERYTHING ITS VALUE.

                                              -- TOM PAINE
 Job cpu time:       0 days  0 hours  5 minutes  5.6 seconds.
 Elapsed time:       0 days  0 hours  0 minutes 54.7 seconds.
 File lengths (MBytes):  RWF=     10 Int=      0 D2E=      0 Chk=      2 Scr=      1
 Normal termination of Gaussian 16 at Wed Jan 12 16:08:22 2022.
