Atom number=19                                                          
SP        RPM6                                                        ZDO                 
Number of atoms                            I               19
Info1-9                                    I   N=           9
          81          80           0           0           0         111
           1           8        2302
Full Title                                 C   N=           2
Atom number=19          
Route                                      C   N=           3
#p int=acc2e=12 pm6 charge nosymm   
Charge                                     I                1
Multiplicity                               I                1
Number of electrons                        I               74
Number of alpha electrons                  I               37
Number of beta electrons                   I               37
Number of basis functions                  I               64
Number of independent functions            I               64
Number of point charges in /Mol/           I                0
Number of translation vectors              I                0
Atomic numbers                             I   N=          19
           6           8           7           6           6           8
           7           6           6           8           7           6
           6           8           6           1           1           1
           1
Nuclear charges                            R   N=          19
  4.00000000E+00  6.00000000E+00  5.00000000E+00  4.00000000E+00  4.00000000E+00
  6.00000000E+00  5.00000000E+00  4.00000000E+00  4.00000000E+00  6.00000000E+00
  5.00000000E+00  4.00000000E+00  4.00000000E+00  6.00000000E+00  4.00000000E+00
  1.00000000E+00  1.00000000E+00  1.00000000E+00  1.00000000E+00
Current cartesian coordinates              R   N=          57
  6.47042225E+00  1.82358571E+00  3.33177613E+01  5.92618113E+00  3.98732212E+00
  3.32818565E+01  5.99610099E+00  2.43774670E-01  3.52377230E+01  4.83580915E+00
  9.75098680E-01  3.76112191E+01  6.33058252E+00 -2.30546587E-01  3.97107048E+01
  6.36081814E+00 -2.53034328E+00  3.99488103E+01  7.68551615E+00  1.30013157E+00
  4.11355583E+01  9.23698130E+00  3.87393856E-01  4.31821317E+01  8.22030864E+00
  1.45319939E+00  4.56822393E+01  7.86315040E+00  3.74354745E+00  4.58617633E+01
  7.68173670E+00 -2.26767135E-01  4.75285018E+01  7.02978118E+00  5.91484277E-01
  5.01060882E+01  2.15050833E+00 -3.96842486E-02  3.77623971E+01  7.42662367E-01
  7.44552093E-01  3.55722046E+01  9.18406897E-01  9.46752788E-01  3.99998329E+01
  7.45825370E+00  1.05764874E+00  3.17284087E+01  1.11690919E+01  9.23508666E-01
  4.29212836E+01  8.64380301E+00  3.62798144E-01  5.13023943E+01  5.41246579E+00
 -3.82083952E-01  5.08306349E+01
Number of symbols in /Mol/                 I                0
Int Atom Types                             I   N=          19
           0           0           0           0           0           0
           0           0           0           0           0           0
           0           0           0           0           0           0
           0
Force Field                                I                0
Atom Types                                 C   N=          19
                                                            
                                                            
                                                            
                                                
MM charges                                 R   N=          19
  0.00000000E+00  0.00000000E+00  0.00000000E+00  0.00000000E+00  0.00000000E+00
  0.00000000E+00  0.00000000E+00  0.00000000E+00  0.00000000E+00  0.00000000E+00
  0.00000000E+00  0.00000000E+00  0.00000000E+00  0.00000000E+00  0.00000000E+00
  0.00000000E+00  0.00000000E+00  0.00000000E+00  0.00000000E+00
Integer atomic weights                     I   N=          19
          12          16          14          12          12          16
          14          12          12          16          14          12
          12          16          12           1           1           1
           1
Real atomic weights                        R   N=          19
  1.20000000E+01  1.59949146E+01  1.40030740E+01  1.20000000E+01  1.20000000E+01
  1.59949146E+01  1.40030740E+01  1.20000000E+01  1.20000000E+01  1.59949146E+01
  1.40030740E+01  1.20000000E+01  1.20000000E+01  1.59949146E+01  1.20000000E+01
  1.00782504E+00  1.00782504E+00  1.00782504E+00  1.00782504E+00
Atom fragment info                         I   N=          19
           0           0           0           0           0           0
           0           0           0           0           0           0
           0           0           0           0           0           0
           0
Atom residue num                           I   N=          19
           0           0           0           0           0           0
           0           0           0           0           0           0
           0           0           0           0           0           0
           0
Nuclear spins                              I   N=          19
           0           0           2           0           0           0
           2           0           0           0           2           0
           0           0           0           1           1           1
           1
Nuclear ZEff                               R   N=          19
 -3.90000000E+00 -6.00000000E+00 -4.90000000E+00 -3.90000000E+00 -3.90000000E+00
 -6.00000000E+00 -4.90000000E+00 -3.90000000E+00 -3.90000000E+00 -6.00000000E+00
 -4.90000000E+00 -3.90000000E+00 -3.90000000E+00 -6.00000000E+00 -3.90000000E+00
 -1.00000000E+00 -1.00000000E+00 -1.00000000E+00 -1.00000000E+00
Nuclear ZNuc                               R   N=          19
  6.00000000E+00  8.00000000E+00  7.00000000E+00  6.00000000E+00  6.00000000E+00
  8.00000000E+00  7.00000000E+00  6.00000000E+00  6.00000000E+00  8.00000000E+00
  7.00000000E+00  6.00000000E+00  6.00000000E+00  8.00000000E+00  6.00000000E+00
  1.00000000E+00  1.00000000E+00  1.00000000E+00  1.00000000E+00
Nuclear QMom                               R   N=          19
  0.00000000E+00  0.00000000E+00  2.04400000E+00  0.00000000E+00  0.00000000E+00
  0.00000000E+00  2.04400000E+00  0.00000000E+00  0.00000000E+00  0.00000000E+00
  2.04400000E+00  0.00000000E+00  0.00000000E+00  0.00000000E+00  0.00000000E+00
  0.00000000E+00  0.00000000E+00  0.00000000E+00  0.00000000E+00
Nuclear GFac                               R   N=          19
  0.00000000E+00  0.00000000E+00  4.03761000E-01  0.00000000E+00  0.00000000E+00
  0.00000000E+00  4.03761000E-01  0.00000000E+00  0.00000000E+00  0.00000000E+00
  4.03761000E-01  0.00000000E+00  0.00000000E+00  0.00000000E+00  0.00000000E+00
  2.79284600E+00  2.79284600E+00  2.79284600E+00  2.79284600E+00
MicOpt                                     I   N=          19
          -1          -1          -1          -1          -1          -1
          -1          -1          -1          -1          -1          -1
          -1          -1          -1          -1          -1          -1
          -1
Number of residues                         I                0
Number of secondary structures             I                0
Number of contracted shells                I               19
Number of primitive shells                 I              114
Pure/Cartesian d shells                    I                0
Pure/Cartesian f shells                    I                0
Highest angular momentum                   I                1
Largest degree of contraction              I                6
Shell types                                I   N=          19
          -1          -1          -1          -1          -1          -1
          -1          -1          -1          -1          -1          -1
          -1          -1          -1           0           0           0
           0
Number of primitives per shell             I   N=          19
           6           6           6           6           6           6
           6           6           6           6           6           6
           6           6           6           6           6           6
           6
Shell to atom map                          I   N=          19
           1           2           3           4           5           6
           7           8           9          10          11          12
          13          14          15          16          17          18
          19
Primitive exponents                        R   N=         114
  1.14476344E+01  3.29633588E+00  1.29653143E+00  5.92558930E-01  2.94896438E-01
  1.51447622E-01  8.02643074E+01  2.31120341E+01  9.09054165E+00  4.15468650E+00
  2.06764625E+00  1.06186467E+00  1.54719623E+01  4.45513742E+00  1.75231709E+00
  8.00868468E-01  3.98565014E-01  2.04687870E-01  1.14476344E+01  3.29633588E+00
  1.29653143E+00  5.92558930E-01  2.94896438E-01  1.51447622E-01  1.14476344E+01
  3.29633588E+00  1.29653143E+00  5.92558930E-01  2.94896438E-01  1.51447622E-01
  8.02643074E+01  2.31120341E+01  9.09054165E+00  4.15468650E+00  2.06764625E+00
  1.06186467E+00  1.54719623E+01  4.45513742E+00  1.75231709E+00  8.00868468E-01
  3.98565014E-01  2.04687870E-01  1.14476344E+01  3.29633588E+00  1.29653143E+00
  5.92558930E-01  2.94896438E-01  1.51447622E-01  1.14476344E+01  3.29633588E+00
  1.29653143E+00  5.92558930E-01  2.94896438E-01  1.51447622E-01  8.02643074E+01
  2.31120341E+01  9.09054165E+00  4.15468650E+00  2.06764625E+00  1.06186467E+00
  1.54719623E+01  4.45513742E+00  1.75231709E+00  8.00868468E-01  3.98565014E-01
  2.04687870E-01  1.14476344E+01  3.29633588E+00  1.29653143E+00  5.92558930E-01
  2.94896438E-01  1.51447622E-01  1.14476344E+01  3.29633588E+00  1.29653143E+00
  5.92558930E-01  2.94896438E-01  1.51447622E-01  8.02643074E+01  2.31120341E+01
  9.09054165E+00  4.15468650E+00  2.06764625E+00  1.06186467E+00  1.14476344E+01
  3.29633588E+00  1.29653143E+00  5.92558930E-01  2.94896438E-01  1.51447622E-01
  4.39461478E+00  1.26542531E+00  4.97723458E-01  2.27476537E-01  1.13207340E-01
  5.81389949E-02  4.39461478E+00  1.26542531E+00  4.97723458E-01  2.27476537E-01
  1.13207340E-01  5.81389949E-02  4.39461478E+00  1.26542531E+00  4.97723458E-01
  2.27476537E-01  1.13207340E-01  5.81389949E-02  4.39461478E+00  1.26542531E+00
  4.97723458E-01  2.27476537E-01  1.13207340E-01  5.81389949E-02
Contraction coefficients                   R   N=         114
 -9.73739553E-03 -7.26587678E-02 -1.71615520E-01  1.28977624E-01  7.28861451E-01
  3.01331742E-01 -9.73739553E-03 -7.26587678E-02 -1.71615520E-01  1.28977624E-01
  7.28861451E-01  3.01331742E-01 -9.73739553E-03 -7.26587678E-02 -1.71615520E-01
  1.28977624E-01  7.28861451E-01  3.01331742E-01 -9.73739553E-03 -7.26587678E-02
 -1.71615520E-01  1.28977624E-01  7.28861451E-01  3.01331742E-01 -9.73739553E-03
 -7.26587678E-02 -1.71615520E-01  1.28977624E-01  7.28861451E-01  3.01331742E-01
 -9.73739553E-03 -7.26587678E-02 -1.71615520E-01  1.28977624E-01  7.28861451E-01
  3.01331742E-01 -9.73739553E-03 -7.26587678E-02 -1.71615520E-01  1.28977624E-01
  7.28861451E-01  3.01331742E-01 -9.73739553E-03 -7.26587678E-02 -1.71615520E-01
  1.28977624E-01  7.28861451E-01  3.01331742E-01 -9.73739553E-03 -7.26587678E-02
 -1.71615520E-01  1.28977624E-01  7.28861451E-01  3.01331742E-01 -9.73739553E-03
 -7.26587678E-02 -1.71615520E-01  1.28977624E-01  7.28861451E-01  3.01331742E-01
 -9.73739553E-03 -7.26587678E-02 -1.71615520E-01  1.28977624E-01  7.28861451E-01
  3.01331742E-01 -9.73739553E-03 -7.26587678E-02 -1.71615520E-01  1.28977624E-01
  7.28861451E-01  3.01331742E-01 -9.73739553E-03 -7.26587678E-02 -1.71615520E-01
  1.28977624E-01  7.28861451E-01  3.01331742E-01 -9.73739553E-03 -7.26587678E-02
 -1.71615520E-01  1.28977624E-01  7.28861451E-01  3.01331742E-01 -9.73739553E-03
 -7.26587678E-02 -1.71615520E-01  1.28977624E-01  7.28861451E-01  3.01331742E-01
 -9.73739553E-03 -7.26587678E-02 -1.71615520E-01  1.28977624E-01  7.28861451E-01
  3.01331742E-01 -9.73739553E-03 -7.26587678E-02 -1.71615520E-01  1.28977624E-01
  7.28861451E-01  3.01331742E-01 -9.73739553E-03 -7.26587678E-02 -1.71615520E-01
  1.28977624E-01  7.28861451E-01  3.01331742E-01 -9.73739553E-03 -7.26587678E-02
 -1.71615520E-01  1.28977624E-01  7.28861451E-01  3.01331742E-01
P(S=P) Contraction coefficients            R   N=         114
 -8.10494336E-03 -1.71547892E-02  7.36978576E-02  3.96514999E-01  4.97808488E-01
  1.17482582E-01 -8.10494336E-03 -1.71547892E-02  7.36978576E-02  3.96514999E-01
  4.97808488E-01  1.17482582E-01 -8.10494336E-03 -1.71547892E-02  7.36978576E-02
  3.96514999E-01  4.97808488E-01  1.17482582E-01 -8.10494336E-03 -1.71547892E-02
  7.36978576E-02  3.96514999E-01  4.97808488E-01  1.17482582E-01 -8.10494336E-03
 -1.71547892E-02  7.36978576E-02  3.96514999E-01  4.97808488E-01  1.17482582E-01
 -8.10494336E-03 -1.71547892E-02  7.36978576E-02  3.96514999E-01  4.97808488E-01
  1.17482582E-01 -8.10494336E-03 -1.71547892E-02  7.36978576E-02  3.96514999E-01
  4.97808488E-01  1.17482582E-01 -8.10494336E-03 -1.71547892E-02  7.36978576E-02
  3.96514999E-01  4.97808488E-01  1.17482582E-01 -8.10494336E-03 -1.71547892E-02
  7.36978576E-02  3.96514999E-01  4.97808488E-01  1.17482582E-01 -8.10494336E-03
 -1.71547892E-02  7.36978576E-02  3.96514999E-01  4.97808488E-01  1.17482582E-01
 -8.10494336E-03 -1.71547892E-02  7.36978576E-02  3.96514999E-01  4.97808488E-01
  1.17482582E-01 -8.10494336E-03 -1.71547892E-02  7.36978576E-02  3.96514999E-01
  4.97808488E-01  1.17482582E-01 -8.10494336E-03 -1.71547892E-02  7.36978576E-02
  3.96514999E-01  4.97808488E-01  1.17482582E-01 -8.10494336E-03 -1.71547892E-02
  7.36978576E-02  3.96514999E-01  4.97808488E-01  1.17482582E-01 -8.10494336E-03
 -1.71547892E-02  7.36978576E-02  3.96514999E-01  4.97808488E-01  1.17482582E-01
  0.00000000E+00  0.00000000E+00  0.00000000E+00  0.00000000E+00  0.00000000E+00
  0.00000000E+00  0.00000000E+00  0.00000000E+00  0.00000000E+00  0.00000000E+00
  0.00000000E+00  0.00000000E+00  0.00000000E+00  0.00000000E+00  0.00000000E+00
  0.00000000E+00  0.00000000E+00  0.00000000E+00  0.00000000E+00  0.00000000E+00
  0.00000000E+00  0.00000000E+00  0.00000000E+00  0.00000000E+00
Coordinates of each shell                  R   N=          57
  6.47042225E+00  1.82358571E+00  3.33177613E+01  5.92618113E+00  3.98732212E+00
  3.32818565E+01  5.99610099E+00  2.43774670E-01  3.52377230E+01  4.83580915E+00
  9.75098680E-01  3.76112191E+01  6.33058252E+00 -2.30546587E-01  3.97107048E+01
  6.36081814E+00 -2.53034328E+00  3.99488103E+01  7.68551615E+00  1.30013157E+00
  4.11355583E+01  9.23698130E+00  3.87393856E-01  4.31821317E+01  8.22030864E+00
  1.45319939E+00  4.56822393E+01  7.86315040E+00  3.74354745E+00  4.58617633E+01
  7.68173670E+00 -2.26767135E-01  4.75285018E+01  7.02978118E+00  5.91484277E-01
  5.01060882E+01  2.15050833E+00 -3.96842486E-02  3.77623971E+01  7.42662367E-01
  7.44552093E-01  3.55722046E+01  9.18406897E-01  9.46752788E-01  3.99998329E+01
  7.45825370E+00  1.05764874E+00  3.17284087E+01  1.11690919E+01  9.23508666E-01
  4.29212836E+01  8.64380301E+00  3.62798144E-01  5.13023943E+01  5.41246579E+00
 -3.82083952E-01  5.08306349E+01
Num ILSW                                   I              100
ILSW                                       I   N=         100
           0           0           0           0           2           0
           0           0           0           0           0          -1
           5           0           0           0           0           0
           0           0           0           0           0           0
           1           1           0           0           0           0
           0           0      100000           0          -1           0
           0           0           0           0           0           0
           0           0           0          40           0           0
           0 -2000000000           1           0           0           0
           0           0           4          52           0           0
           0           1           0           0           0           0
           0           0           0          19           0           1
           0           0           0           0           0           0
           0           0           0           0           0           0
           0           0           0           0           0           0
           0           0           0           0           0           0
           0           0           0           0
Num RLSW                                   I               52
RLSW                                       R   N=          52
  1.00000000E+00  1.00000000E+00  1.00000000E+00  1.00000000E+00  1.00000000E+00
  0.00000000E+00  0.00000000E+00  1.00000000E+00  0.00000000E+00  0.00000000E+00
  0.00000000E+00  0.00000000E+00  1.00000000E+00  0.00000000E+00  0.00000000E+00
  0.00000000E+00  0.00000000E+00  1.00000000E+00  0.00000000E+00  0.00000000E+00
  0.00000000E+00  0.00000000E+00  1.00000000E+00  0.00000000E+00  0.00000000E+00
  0.00000000E+00  0.00000000E+00  1.00000000E+00  0.00000000E+00  0.00000000E+00
  0.00000000E+00  0.00000000E+00  1.00000000E+00  0.00000000E+00  0.00000000E+00
  0.00000000E+00  0.00000000E+00  0.00000000E+00  1.00000000E+00  1.00000000E+00
  0.00000000E+00  1.00000000E+00  0.00000000E+00  0.00000000E+00  0.00000000E+00
  0.00000000E+00  0.00000000E+00  0.00000000E+00  0.00000000E+00  0.00000000E+00
  0.00000000E+00  0.00000000E+00
MxBond                                     I                3
NBond                                      I   N=          19
           3           1           2           3           3           1
           2           3           3           1           2           3
           3           1           1           1           1           1
           1
IBond                                      I   N=          57
           2           3          16           1           0           0
           1           4           0           3           5          13
           4           6           7           5           0           0
           5           8           0           7           9          17
           8          10          11           9           0           0
           9          12           0          11          18          19
           4          14          15          13           0           0
          13           0           0           1           0           0
           8           0           0          12           0           0
          12           0           0
RBond                                      R   N=          57
  2.00000000E+00  1.50000000E+00  1.00000000E+00  2.00000000E+00  0.00000000E+00
  0.00000000E+00  1.50000000E+00  1.00000000E+00  0.00000000E+00  1.00000000E+00
  1.00000000E+00  1.00000000E+00  1.00000000E+00  2.00000000E+00  1.50000000E+00
  2.00000000E+00  0.00000000E+00  0.00000000E+00  1.50000000E+00  1.00000000E+00
  0.00000000E+00  1.00000000E+00  1.00000000E+00  1.00000000E+00  1.00000000E+00
  2.00000000E+00  1.50000000E+00  2.00000000E+00  0.00000000E+00  0.00000000E+00
  1.50000000E+00  1.00000000E+00  0.00000000E+00  1.00000000E+00  1.00000000E+00
  1.00000000E+00  1.00000000E+00  1.00000000E+00  1.00000000E+00  1.00000000E+00
  0.00000000E+00  0.00000000E+00  1.00000000E+00  0.00000000E+00  0.00000000E+00
  1.00000000E+00  0.00000000E+00  0.00000000E+00  1.00000000E+00  0.00000000E+00
  0.00000000E+00  1.00000000E+00  0.00000000E+00  0.00000000E+00  1.00000000E+00
  0.00000000E+00  0.00000000E+00
Virial Ratio                               R      9.852085593076411E-01
SCF Energy                                 R     -2.375355941742839E+00
Total Energy                               R     -2.375355941742839E+00
RMS Density                                R      6.877988318415405E-09
Job Status                                 I                1
Nuclear derivative order                   I                0
External E-field                           R   N=          35
  0.00000000E+00  0.00000000E+00  0.00000000E+00  0.00000000E+00  0.00000000E+00
  0.00000000E+00  0.00000000E+00  0.00000000E+00  0.00000000E+00  0.00000000E+00
  0.00000000E+00  0.00000000E+00  0.00000000E+00  0.00000000E+00  0.00000000E+00
  0.00000000E+00  0.00000000E+00  0.00000000E+00  0.00000000E+00  0.00000000E+00
  0.00000000E+00  0.00000000E+00  0.00000000E+00  0.00000000E+00  0.00000000E+00
  0.00000000E+00  0.00000000E+00  0.00000000E+00  0.00000000E+00  0.00000000E+00
  0.00000000E+00  0.00000000E+00  0.00000000E+00  0.00000000E+00  0.00000000E+00
IOpCl                                      I                0
IROHF                                      I                0
Alpha Orbital Energies                     R   N=          64
 -1.64366542E+00 -1.58816785E+00 -1.57112508E+00 -1.53957098E+00 -1.48771763E+00
 -1.47443151E+00 -1.45695459E+00 -1.42302276E+00 -1.35996629E+00 -1.32270000E+00
 -1.26178401E+00 -1.21212589E+00 -1.15400479E+00 -1.09927673E+00 -1.07644219E+00
 -1.04812566E+00 -1.01601246E+00 -9.98780199E-01 -9.82954245E-01 -9.63323881E-01
 -9.38569558E-01 -9.35404244E-01 -9.18319677E-01 -9.02605225E-01 -8.83219525E-01
 -8.76912854E-01 -8.70284904E-01 -8.52554388E-01 -8.47420866E-01 -8.16290685E-01
 -8.09459737E-01 -7.80454754E-01 -7.52072424E-01 -7.37972800E-01 -7.31767148E-01
 -6.97725533E-01 -6.84428963E-01 -5.61896334E-01 -5.20617469E-01 -4.85412008E-01
 -4.47067599E-01 -4.38934451E-01 -4.35642278E-01 -4.03214646E-01 -3.95037470E-01
 -3.84243784E-01 -3.41446788E-01 -3.33746166E-01 -3.04545852E-01 -2.97402389E-01
 -2.92972395E-01 -2.90242056E-01 -2.79681415E-01 -2.67536089E-01 -2.63456503E-01
 -2.50899829E-01 -2.44731309E-01 -2.37963140E-01 -2.06395698E-01 -1.78364608E-01
 -1.58046678E-01 -1.22262993E-01 -1.00830110E-01  4.97590480E-02
Alpha MO coefficients                      R   N=        4096
 -4.83161284E-04  1.09938888E-04  6.40062525E-06 -2.51110961E-04 -2.68728706E-04
 -2.62736114E-05  2.14120777E-04 -7.44817189E-05 -1.12551096E-03  2.10143222E-04
 -2.39696682E-04 -2.68200067E-04 -6.57388208E-04  3.10498884E-04  7.31030065E-05
  1.09612264E-03  8.25509791E-03  3.92400155E-03  1.52307356E-03  8.06950996E-03
  2.96673170E-03  6.67675023E-04  3.35541395E-03  1.40874603E-03  3.51740534E-02
  4.19710664E-03 -5.08546885E-03  2.20371401E-02  8.31079063E-02 -2.97010661E-02
  3.21892172E-02  5.85190924E-02  4.34366591E-01 -5.72973781E-02  8.40501542E-02
  1.37175771E-01  3.84833951E-01  2.51239974E-02 -2.27214703E-01  1.49060428E-02
  5.32496957E-01 -3.29972314E-03  1.81293971E-01  3.90879412E-02  3.67989307E-01
  1.32080532E-02 -5.35666837E-02 -1.11989551E-01 -4.67160332E-04 -1.21719809E-04
 -9.88708580E-05  2.21999021E-04 -2.65664709E-04 -1.49061257E-04  3.85924207E-05
 -1.40797290E-04 -4.99964827E-05  4.35293428E-05  5.50870198E-06  1.23000443E-04
 -1.04612902E-04  2.07245500E-02  1.42686547E-01  2.78640537E-01  8.24622860E-04
 -1.71242421E-04 -5.41169802E-04  1.95998381E-03 -2.31646660E-04  1.58146437E-05
 -1.56976927E-04  4.18784088E-04  1.05897347E-02 -8.17041308E-04  4.74013436E-04
  8.38762982E-03  3.13767373E-02  1.29477382E-02 -1.18878058E-02  1.81034136E-02
  1.32212582E-01  2.82104458E-02 -1.15313053E-02  3.78062673E-02  8.79342598E-02
  5.53643874E-03  6.45839843E-02  2.06530851E-03  1.86530996E-01 -1.75873455E-03
 -5.20276623E-02  2.06444088E-02  1.28808746E-01 -4.67440628E-02  5.13207944E-02
 -8.75389847E-04  2.60432488E-01 -1.44449887E-02  2.73095903E-01 -7.03516500E-02
  5.51188325E-01  4.12897676E-02 -2.12576444E-01 -3.95982305E-02 -2.50533424E-01
  3.61259733E-02  6.69974785E-03 -1.50211109E-01 -3.79874278E-01  2.40523748E-02
  8.86743641E-02  1.76777718E-02  9.61249218E-03  8.63501073E-03  1.07463441E-03
  4.86245951E-03 -2.67940423E-03  4.74262871E-04  1.95483571E-04  1.00229159E-04
  4.82259268E-03  3.90763512E-03 -1.09838003E-03 -1.56677979E-03 -7.12647976E-05
  3.25186124E-02 -1.60802124E-01 -3.74623167E-01  2.34192973E-02 -4.60689005E-03
  1.36518446E-03  1.54972478E-02  1.57746356E-02  1.92885069E-03 -1.10282592E-02
  3.99427211E-03  7.66644422E-02 -8.03831657E-03  9.26357075E-03  4.08056029E-02
  1.58614380E-01  5.21365580E-02 -5.96506117E-02  6.60328794E-02  5.22819698E-01
  7.52329649E-02 -9.87843077E-02  9.68925946E-02  4.14078092E-01  1.32157854E-02
  2.74392861E-01 -6.75470483E-03  4.83879211E-01 -5.62266193E-02 -1.87711898E-01
 -4.78160607E-02  1.57440970E-01 -7.68861326E-02  4.81183904E-04 -1.05297139E-01
 -4.98423988E-02  1.01783508E-02 -1.11220181E-01 -3.55949176E-02 -2.03143263E-01
 -1.27291510E-02  6.57365027E-02 -2.12597814E-03  5.78301239E-02 -8.53243117E-03
 -9.81194179E-03  2.59000691E-02  8.95801591E-02 -8.79317579E-03 -2.31851676E-02
  1.29066128E-03  5.86056276E-02  4.35952858E-02  7.60721843E-03  2.02202161E-02
 -6.24269167E-03  5.79444450E-03  4.62570647E-05  4.12533167E-03  2.70561851E-02
  1.93946444E-02 -6.00800389E-03 -1.05193721E-02  4.47217089E-03  3.11695686E-02
  3.85732216E-02  9.56558536E-02  5.07722399E-01 -8.54469445E-02  2.22178146E-01
  8.81809888E-02  6.08604324E-01  7.11577891E-02 -3.09407290E-01  3.26197865E-02
  3.47899811E-01 -1.27108629E-02  1.53703213E-01 -5.49051616E-02  1.30056467E-01
  2.59788989E-02 -8.68974782E-04 -9.29676055E-02 -1.46427023E-02 -1.96235588E-02
  1.76554911E-02 -4.17067740E-02 -3.46156289E-02 -4.44273512E-03 -1.60133173E-02
 -8.26741730E-03 -5.06460097E-02 -9.52206269E-04  1.86114149E-02 -7.69067460E-03
 -2.62089387E-02  1.02073275E-02 -2.16144553E-03  1.12294054E-02 -1.31245265E-03
 -1.76283350E-03  1.13464451E-02  7.13809989E-03  1.83409736E-02  7.02263539E-04
 -4.12944121E-03  1.51215469E-03 -3.89041281E-03 -2.47837872E-04  7.51895654E-04
  1.39971054E-03 -2.17778587E-03  3.40153579E-04  8.36518116E-04 -1.45545537E-04
  4.85522553E-02  2.23795627E-02  1.66494563E-02 -1.94044115E-02  3.19174436E-02
  1.80014167E-02 -2.33769287E-03  1.26064351E-02  9.92529201E-03  6.10628847E-03
 -7.94638053E-04 -9.34404081E-03  1.32349473E-01 -5.61454139E-03 -9.51640953E-04
 -2.71420916E-03 -1.46866762E-02  1.35648590E-03 -2.95570163E-02  1.18301932E-02
 -5.09840148E-02 -5.96830691E-03  1.69064033E-02  2.66360330E-03  5.37474777E-02
 -1.17001788E-02  9.01060738E-04  2.26820139E-02  7.19866578E-02 -5.70814681E-03
 -3.13113170E-02 -2.37002269E-03  6.47945905E-02 -4.80259604E-02 -1.17501879E-01
 -4.89705478E-02  1.96173378E-01 -1.45357595E-02  7.27050231E-02 -2.38831913E-02
 -1.72542015E-01 -2.17198657E-02  2.89711891E-02 -4.43747626E-02 -1.92045674E-01
  4.85004627E-02 -1.27541321E-02 -3.79242814E-02 -2.39538622E-01 -9.59862709E-03
  3.17527038E-01 -7.04077421E-02  3.69087360E-01  1.34880402E-02 -4.56040123E-03
 -2.39395194E-02 -4.22273002E-01 -8.32401961E-02 -1.18930178E-01  1.92306370E-01
  2.40076191E-01 -9.98243274E-02 -6.48122216E-02  1.62465359E-01  6.51217004E-02
  1.47498661E-02  1.24753396E-02  1.28391469E-03  3.38492451E-02  1.28295539E-02
 -3.53362007E-03  1.68455245E-02  3.05245568E-02  1.21276498E-02 -5.66280215E-03
 -1.55302277E-02 -4.82902581E-03 -4.34491233E-02  1.22735751E-01  4.30793669E-01
  2.04392919E-02 -7.19672837E-04  7.58456477E-02 -3.46871406E-02  1.21608692E-01
  1.41357875E-02 -3.52842930E-02 -8.40607639E-03 -1.50234957E-01  3.16099320E-02
 -8.82222117E-03 -4.58922906E-02 -1.62252845E-01  3.43325358E-02  7.07302736E-02
  3.07031472E-02 -7.02410912E-02  1.33095294E-01  2.99221856E-01  1.27166619E-01
 -4.47909437E-01  3.91454896E-02 -1.41097342E-01  5.64709370E-02  4.87670180E-01
  2.43928340E-02 -8.00611081E-02  4.02245244E-02  2.13752177E-01 -7.20191013E-02
  5.10423659E-02 -1.18494413E-01 -5.95671165E-02  2.17071145E-02  6.97634953E-02
 -1.37218749E-01  4.80640239E-02  7.70118594E-03  1.11991717E-02 -4.12417036E-02
 -2.07922558E-01 -3.59260314E-02 -6.96767983E-02  6.46177352E-02  1.20782017E-01
 -5.95030570E-02 -3.67585933E-02  9.65196562E-02 -1.86622725E-01 -2.15149831E-02
 -3.96567573E-02  9.21735691E-03 -1.32796085E-01 -4.05099383E-02  1.23788426E-02
 -5.64996286E-02 -8.84522443E-02 -3.05779411E-02  1.56047551E-02  4.68628551E-02
  7.31856004E-03  5.15652187E-02  6.32247018E-02  2.40428462E-01 -1.26146861E-02
  1.99911943E-04 -1.67642834E-01  8.47960543E-02 -2.56546394E-01 -2.82405455E-02
  6.34046901E-02  2.16766581E-02  3.17400370E-01 -5.31417133E-02  5.14634674E-02
  5.91232148E-02  3.17610872E-01 -5.50901868E-02 -3.73872433E-02 -5.82033715E-02
  8.83518204E-03 -2.46180130E-02  2.33947244E-01 -5.46001012E-02 -3.49008584E-01
 -5.64659842E-03 -9.23324518E-02 -8.28444053E-04  1.58453334E-01 -1.57953625E-02
 -4.51325402E-03 -1.65371949E-02  5.19110977E-02 -1.75929435E-02  1.64719224E-02
 -2.13433393E-02  4.13615729E-03  4.70629862E-03 -4.25936964E-03 -2.31563355E-02
 -1.18282995E-02  7.65467741E-04  1.33326755E-03 -7.15225012E-03 -1.52221132E-02
 -2.01299385E-03 -6.25104131E-03  9.64107222E-04  9.15155424E-03 -5.71408672E-03
 -3.22813120E-03  9.12731995E-03  4.02075346E-01 -2.67111435E-02  1.19864729E-01
 -6.17325583E-02  4.27140269E-01  9.87884807E-02 -3.16765299E-02  1.53001819E-01
  2.03104354E-01  5.82017360E-02 -2.68997524E-02 -1.11385640E-01 -6.11558193E-03
  1.26149087E-02  4.93563582E-03  2.12311095E-02 -9.26028901E-02 -7.04504067E-03
  2.50559815E-01 -1.42530153E-01  3.28790743E-01  2.71596958E-02 -4.39576509E-02
 -3.92013860E-02 -5.11673484E-01  3.74652645E-03 -9.85127638E-02 -4.70148681E-03
 -1.72641280E-01 -1.43071792E-01  2.70444866E-02  1.12870206E-01 -3.42961596E-02
  1.08978683E-02 -7.01600731E-02  7.12133652E-02  9.76399620E-02  2.95930180E-03
  1.64778688E-02  1.85675840E-02  1.04920822E-02  1.73517162E-02 -1.04742229E-02
  3.69370163E-02  3.81186060E-02 -9.14683966E-03  4.72773364E-03 -6.12513019E-03
  6.65987795E-03  4.82441267E-03 -3.82399862E-03 -1.84846424E-02 -7.56679423E-03
  1.41862486E-03 -3.35424796E-04 -5.89985592E-03 -1.46791674E-02 -7.90082717E-04