Atom number=17                                                          
SP        RPM6                                                        ZDO                 
Number of atoms                            I               17
Info1-9                                    I   N=           9
          81          80           0           0           0         111
           1           8        2302
Full Title                                 C   N=           2
Atom number=17          
Route                                      C   N=           3
#p int=acc2e=12 pm6 charge nosymm   
Charge                                     I                1
Multiplicity                               I                1
Number of electrons                        I               64
Number of alpha electrons                  I               32
Number of beta electrons                   I               32
Number of basis functions                  I               56
Number of independent functions            I               56
Number of point charges in /Mol/           I                0
Number of translation vectors              I                0
Atomic numbers                             I   N=          17
           6           8           7           6           6           8
           7           6           6           6           8           7
           6           1           1           1           1
Nuclear charges                            R   N=          17
  4.00000000E+00  6.00000000E+00  5.00000000E+00  4.00000000E+00  4.00000000E+00
  6.00000000E+00  5.00000000E+00  4.00000000E+00  4.00000000E+00  4.00000000E+00
  6.00000000E+00  5.00000000E+00  4.00000000E+00  1.00000000E+00  1.00000000E+00
  1.00000000E+00  1.00000000E+00
Current cartesian coordinates              R   N=          51
  1.58736994E+00 -1.61382611E+00  1.28350198E+01  1.94074873E+00 -3.82102622E+00
  1.26989596E+01  3.42040429E+00  3.77945225E-03  1.32715466E+01  6.03011606E+00
 -8.10692507E-01  1.34189452E+01  7.39071887E+00  4.87549340E-01  1.55505563E+01
  7.67984697E+00  2.79301521E+00  1.55486666E+01  8.24676481E+00 -9.95885668E-01
  1.73646934E+01  9.57524227E+00  3.77945225E-02  1.95133120E+01  7.31512983E+00
 -1.94641791E-01  1.08621458E+01  8.07102028E+00  1.54390624E+00  2.13463463E+01
  8.23731618E+00  3.84181321E+00  2.14805169E+01  6.59892363E+00  1.96531517E-01
  2.28146635E+01  4.88494203E+00  1.27934459E+00  2.47270663E+01 -2.93688573E-01
 -8.90444543E-01  1.26711599E+01  9.18548299E+00 -9.28646661E-01  1.06351480E+01
  5.45856275E+00  4.20957300E-01  2.64656412E+01  2.94639187E+00  8.17974964E-01
  2.43840307E+01
Number of symbols in /Mol/                 I                0
Int Atom Types                             I   N=          17
           0           0           0           0           0           0
           0           0           0           0           0           0
           0           0           0           0           0
Force Field                                I                0
Atom Types                                 C   N=          17
                                                            
                                                            
                                                            
                        
MM charges                                 R   N=          17
  0.00000000E+00  0.00000000E+00  0.00000000E+00  0.00000000E+00  0.00000000E+00
  0.00000000E+00  0.00000000E+00  0.00000000E+00  0.00000000E+00  0.00000000E+00
  0.00000000E+00  0.00000000E+00  0.00000000E+00  0.00000000E+00  0.00000000E+00
  0.00000000E+00  0.00000000E+00
Integer atomic weights                     I   N=          17
          12          16          14          12          12          16
          14          12          12          12          16          14
          12           1           1           1           1
Real atomic weights                        R   N=          17
  1.20000000E+01  1.59949146E+01  1.40030740E+01  1.20000000E+01  1.20000000E+01
  1.59949146E+01  1.40030740E+01  1.20000000E+01  1.20000000E+01  1.20000000E+01
  1.59949146E+01  1.40030740E+01  1.20000000E+01  1.00782504E+00  1.00782504E+00
  1.00782504E+00  1.00782504E+00
Atom fragment info                         I   N=          17
           0           0           0           0           0           0
           0           0           0           0           0           0
           0           0           0           0           0
Atom residue num                           I   N=          17
           0           0           0           0           0           0
           0           0           0           0           0           0
           0           0           0           0           0
Nuclear spins                              I   N=          17
           0           0           2           0           0           0
           2           0           0           0           0           2
           0           1           1           1           1
Nuclear ZEff                               R   N=          17
 -3.90000000E+00 -6.00000000E+00 -4.90000000E+00 -3.90000000E+00 -3.90000000E+00
 -6.00000000E+00 -4.90000000E+00 -3.90000000E+00 -3.90000000E+00 -3.90000000E+00
 -6.00000000E+00 -4.90000000E+00 -3.90000000E+00 -1.00000000E+00 -1.00000000E+00
 -1.00000000E+00 -1.00000000E+00
Nuclear ZNuc                               R   N=          17
  6.00000000E+00  8.00000000E+00  7.00000000E+00  6.00000000E+00  6.00000000E+00
  8.00000000E+00  7.00000000E+00  6.00000000E+00  6.00000000E+00  6.00000000E+00
  8.00000000E+00  7.00000000E+00  6.00000000E+00  1.00000000E+00  1.00000000E+00
  1.00000000E+00  1.00000000E+00
Nuclear QMom                               R   N=          17
  0.00000000E+00  0.00000000E+00  2.04400000E+00  0.00000000E+00  0.00000000E+00
  0.00000000E+00  2.04400000E+00  0.00000000E+00  0.00000000E+00  0.00000000E+00
  0.00000000E+00  2.04400000E+00  0.00000000E+00  0.00000000E+00  0.00000000E+00
  0.00000000E+00  0.00000000E+00
Nuclear GFac                               R   N=          17
  0.00000000E+00  0.00000000E+00  4.03761000E-01  0.00000000E+00  0.00000000E+00
  0.00000000E+00  4.03761000E-01  0.00000000E+00  0.00000000E+00  0.00000000E+00
  0.00000000E+00  4.03761000E-01  0.00000000E+00  2.79284600E+00  2.79284600E+00
  2.79284600E+00  2.79284600E+00
MicOpt                                     I   N=          17
          -1          -1          -1          -1          -1          -1
          -1          -1          -1          -1          -1          -1
          -1          -1          -1          -1          -1
Number of residues                         I                0
Number of secondary structures             I                0
Number of contracted shells                I               17
Number of primitive shells                 I              102
Pure/Cartesian d shells                    I                0
Pure/Cartesian f shells                    I                0
Highest angular momentum                   I                1
Largest degree of contraction              I                6
Shell types                                I   N=          17
          -1          -1          -1          -1          -1          -1
          -1          -1          -1          -1          -1          -1
          -1           0           0           0           0
Number of primitives per shell             I   N=          17
           6           6           6           6           6           6
           6           6           6           6           6           6
           6           6           6           6           6
Shell to atom map                          I   N=          17
           1           2           3           4           5           6
           7           8           9          10          11          12
          13          14          15          16          17
Primitive exponents                        R   N=         102
  1.14476344E+01  3.29633588E+00  1.29653143E+00  5.92558930E-01  2.94896438E-01
  1.51447622E-01  8.02643074E+01  2.31120341E+01  9.09054165E+00  4.15468650E+00
  2.06764625E+00  1.06186467E+00  1.54719623E+01  4.45513742E+00  1.75231709E+00
  8.00868468E-01  3.98565014E-01  2.04687870E-01  1.14476344E+01  3.29633588E+00
  1.29653143E+00  5.92558930E-01  2.94896438E-01  1.51447622E-01  1.14476344E+01
  3.29633588E+00  1.29653143E+00  5.92558930E-01  2.94896438E-01  1.51447622E-01
  8.02643074E+01  2.31120341E+01  9.09054165E+00  4.15468650E+00  2.06764625E+00
  1.06186467E+00  1.54719623E+01  4.45513742E+00  1.75231709E+00  8.00868468E-01
  3.98565014E-01  2.04687870E-01  1.14476344E+01  3.29633588E+00  1.29653143E+00
  5.92558930E-01  2.94896438E-01  1.51447622E-01  1.14476344E+01  3.29633588E+00
  1.29653143E+00  5.92558930E-01  2.94896438E-01  1.51447622E-01  1.14476344E+01
  3.29633588E+00  1.29653143E+00  5.92558930E-01  2.94896438E-01  1.51447622E-01
  8.02643074E+01  2.31120341E+01  9.09054165E+00  4.15468650E+00  2.06764625E+00
  1.06186467E+00  1.54719623E+01  4.45513742E+00  1.75231709E+00  8.00868468E-01
  3.98565014E-01  2.04687870E-01  1.14476344E+01  3.29633588E+00  1.29653143E+00
  5.92558930E-01  2.94896438E-01  1.51447622E-01  4.39461478E+00  1.26542531E+00
  4.97723458E-01  2.27476537E-01  1.13207340E-01  5.81389949E-02  4.39461478E+00
  1.26542531E+00  4.97723458E-01  2.27476537E-01  1.13207340E-01  5.81389949E-02
  4.39461478E+00  1.26542531E+00  4.97723458E-01  2.27476537E-01  1.13207340E-01
  5.81389949E-02  4.39461478E+00  1.26542531E+00  4.97723458E-01  2.27476537E-01
  1.13207340E-01  5.81389949E-02
Contraction coefficients                   R   N=         102
 -9.73739553E-03 -7.26587678E-02 -1.71615520E-01  1.28977624E-01  7.28861451E-01
  3.01331742E-01 -9.73739553E-03 -7.26587678E-02 -1.71615520E-01  1.28977624E-01
  7.28861451E-01  3.01331742E-01 -9.73739553E-03 -7.26587678E-02 -1.71615520E-01
  1.28977624E-01  7.28861451E-01  3.01331742E-01 -9.73739553E-03 -7.26587678E-02
 -1.71615520E-01  1.28977624E-01  7.28861451E-01  3.01331742E-01 -9.73739553E-03
 -7.26587678E-02 -1.71615520E-01  1.28977624E-01  7.28861451E-01  3.01331742E-01
 -9.73739553E-03 -7.26587678E-02 -1.71615520E-01  1.28977624E-01  7.28861451E-01
  3.01331742E-01 -9.73739553E-03 -7.26587678E-02 -1.71615520E-01  1.28977624E-01
  7.28861451E-01  3.01331742E-01 -9.73739553E-03 -7.26587678E-02 -1.71615520E-01
  1.28977624E-01  7.28861451E-01  3.01331742E-01 -9.73739553E-03 -7.26587678E-02
 -1.71615520E-01  1.28977624E-01  7.28861451E-01  3.01331742E-01 -9.73739553E-03
 -7.26587678E-02 -1.71615520E-01  1.28977624E-01  7.28861451E-01  3.01331742E-01
 -9.73739553E-03 -7.26587678E-02 -1.71615520E-01  1.28977624E-01  7.28861451E-01
  3.01331742E-01 -9.73739553E-03 -7.26587678E-02 -1.71615520E-01  1.28977624E-01
  7.28861451E-01  3.01331742E-01 -9.73739553E-03 -7.26587678E-02 -1.71615520E-01
  1.28977624E-01  7.28861451E-01  3.01331742E-01 -9.73739553E-03 -7.26587678E-02
 -1.71615520E-01  1.28977624E-01  7.28861451E-01  3.01331742E-01 -9.73739553E-03
 -7.26587678E-02 -1.71615520E-01  1.28977624E-01  7.28861451E-01  3.01331742E-01
 -9.73739553E-03 -7.26587678E-02 -1.71615520E-01  1.28977624E-01  7.28861451E-01
  3.01331742E-01 -9.73739553E-03 -7.26587678E-02 -1.71615520E-01  1.28977624E-01
  7.28861451E-01  3.01331742E-01
P(S=P) Contraction coefficients            R   N=         102
 -8.10494336E-03 -1.71547892E-02  7.36978576E-02  3.96514999E-01  4.97808488E-01
  1.17482582E-01 -8.10494336E-03 -1.71547892E-02  7.36978576E-02  3.96514999E-01
  4.97808488E-01  1.17482582E-01 -8.10494336E-03 -1.71547892E-02  7.36978576E-02
  3.96514999E-01  4.97808488E-01  1.17482582E-01 -8.10494336E-03 -1.71547892E-02
  7.36978576E-02  3.96514999E-01  4.97808488E-01  1.17482582E-01 -8.10494336E-03
 -1.71547892E-02  7.36978576E-02  3.96514999E-01  4.97808488E-01  1.17482582E-01
 -8.10494336E-03 -1.71547892E-02  7.36978576E-02  3.96514999E-01  4.97808488E-01
  1.17482582E-01 -8.10494336E-03 -1.71547892E-02  7.36978576E-02  3.96514999E-01
  4.97808488E-01  1.17482582E-01 -8.10494336E-03 -1.71547892E-02  7.36978576E-02
  3.96514999E-01  4.97808488E-01  1.17482582E-01 -8.10494336E-03 -1.71547892E-02
  7.36978576E-02  3.96514999E-01  4.97808488E-01  1.17482582E-01 -8.10494336E-03
 -1.71547892E-02  7.36978576E-02  3.96514999E-01  4.97808488E-01  1.17482582E-01
 -8.10494336E-03 -1.71547892E-02  7.36978576E-02  3.96514999E-01  4.97808488E-01
  1.17482582E-01 -8.10494336E-03 -1.71547892E-02  7.36978576E-02  3.96514999E-01
  4.97808488E-01  1.17482582E-01 -8.10494336E-03 -1.71547892E-02  7.36978576E-02
  3.96514999E-01  4.97808488E-01  1.17482582E-01  0.00000000E+00  0.00000000E+00
  0.00000000E+00  0.00000000E+00  0.00000000E+00  0.00000000E+00  0.00000000E+00
  0.00000000E+00  0.00000000E+00  0.00000000E+00  0.00000000E+00  0.00000000E+00
  0.00000000E+00  0.00000000E+00  0.00000000E+00  0.00000000E+00  0.00000000E+00
  0.00000000E+00  0.00000000E+00  0.00000000E+00  0.00000000E+00  0.00000000E+00
  0.00000000E+00  0.00000000E+00
Coordinates of each shell                  R   N=          51
  1.58736994E+00 -1.61382611E+00  1.28350198E+01  1.94074873E+00 -3.82102622E+00
  1.26989596E+01  3.42040429E+00  3.77945225E-03  1.32715466E+01  6.03011606E+00
 -8.10692507E-01  1.34189452E+01  7.39071887E+00  4.87549340E-01  1.55505563E+01
  7.67984697E+00  2.79301521E+00  1.55486666E+01  8.24676481E+00 -9.95885668E-01
  1.73646934E+01  9.57524227E+00  3.77945225E-02  1.95133120E+01  7.31512983E+00
 -1.94641791E-01  1.08621458E+01  8.07102028E+00  1.54390624E+00  2.13463463E+01
  8.23731618E+00  3.84181321E+00  2.14805169E+01  6.59892363E+00  1.96531517E-01
  2.28146635E+01  4.88494203E+00  1.27934459E+00  2.47270663E+01 -2.93688573E-01
 -8.90444543E-01  1.26711599E+01  9.18548299E+00 -9.28646661E-01  1.06351480E+01
  5.45856275E+00  4.20957300E-01  2.64656412E+01  2.94639187E+00  8.17974964E-01
  2.43840307E+01
Num ILSW                                   I              100
ILSW                                       I   N=         100
           0           0           0           0           2           0
           0           0           0           0           0          -1
           5           0           0           0           0           0
           0           0           0           0           0           0
           1           1           0           0           0           0
           0           0      100000           0          -1           0
           0           0           0           0           0           0
           0           0           0          40           0           0
           0 -2000000000           1           0           0           0
           0           0           4          52           0           0
           0           1           0           0           0           0
           0           0           0          17           0           1
           0           0           0           0           0           0
           0           0           0           0           0           0
           0           0           0           0           0           0
           0           0           0           0           0           0
           0           0           0           0
Num RLSW                                   I               52
RLSW                                       R   N=          52
  1.00000000E+00  1.00000000E+00  1.00000000E+00  1.00000000E+00  1.00000000E+00
  0.00000000E+00  0.00000000E+00  1.00000000E+00  0.00000000E+00  0.00000000E+00
  0.00000000E+00  0.00000000E+00  1.00000000E+00  0.00000000E+00  0.00000000E+00
  0.00000000E+00  0.00000000E+00  1.00000000E+00  0.00000000E+00  0.00000000E+00
  0.00000000E+00  0.00000000E+00  1.00000000E+00  0.00000000E+00  0.00000000E+00
  0.00000000E+00  0.00000000E+00  1.00000000E+00  0.00000000E+00  0.00000000E+00
  0.00000000E+00  0.00000000E+00  1.00000000E+00  0.00000000E+00  0.00000000E+00
  0.00000000E+00  0.00000000E+00  0.00000000E+00  1.00000000E+00  1.00000000E+00
  0.00000000E+00  1.00000000E+00  0.00000000E+00  0.00000000E+00  0.00000000E+00
  0.00000000E+00  0.00000000E+00  0.00000000E+00  0.00000000E+00  0.00000000E+00
  0.00000000E+00  0.00000000E+00
MxBond                                     I                3
NBond                                      I   N=          17
           3           1           2           3           3           1
           2           2           2           3           1           2
           3           1           1           1           1
IBond                                      I   N=          51
           2           3          14           1           0           0
           1           4           0           3           5           9
           4           6           7           5           0           0
           5           8           0           7          10           0
           4          15           0           8          11          12
          10           0           0          10          13           0
          12          16          17           1           0           0
           9           0           0          13           0           0
          13           0           0
RBond                                      R   N=          51
  2.00000000E+00  1.50000000E+00  1.00000000E+00  2.00000000E+00  0.00000000E+00
  0.00000000E+00  1.50000000E+00  1.00000000E+00  0.00000000E+00  1.00000000E+00
  1.00000000E+00  1.00000000E+00  1.00000000E+00  2.00000000E+00  1.50000000E+00
  2.00000000E+00  0.00000000E+00  0.00000000E+00  1.50000000E+00  1.00000000E+00
  0.00000000E+00  1.00000000E+00  1.00000000E+00  0.00000000E+00  1.00000000E+00
  1.00000000E+00  0.00000000E+00  1.00000000E+00  2.00000000E+00  1.50000000E+00
  2.00000000E+00  0.00000000E+00  0.00000000E+00  1.50000000E+00  1.00000000E+00
  0.00000000E+00  1.00000000E+00  1.00000000E+00  1.00000000E+00  1.00000000E+00
  0.00000000E+00  0.00000000E+00  1.00000000E+00  0.00000000E+00  0.00000000E+00
  1.00000000E+00  0.00000000E+00  0.00000000E+00  1.00000000E+00  0.00000000E+00
  0.00000000E+00
Virial Ratio                               R      9.733761825688921E-01
SCF Energy                                 R     -3.666751940547272E+00
Total Energy                               R     -3.666751940547272E+00
RMS Density                                R      8.244950855027078E-09
Job Status                                 I                1
Nuclear derivative order                   I                0
External E-field                           R   N=          35
  0.00000000E+00  0.00000000E+00  0.00000000E+00  0.00000000E+00  0.00000000E+00
  0.00000000E+00  0.00000000E+00  0.00000000E+00  0.00000000E+00  0.00000000E+00
  0.00000000E+00  0.00000000E+00  0.00000000E+00  0.00000000E+00  0.00000000E+00
  0.00000000E+00  0.00000000E+00  0.00000000E+00  0.00000000E+00  0.00000000E+00
  0.00000000E+00  0.00000000E+00  0.00000000E+00  0.00000000E+00  0.00000000E+00
  0.00000000E+00  0.00000000E+00  0.00000000E+00  0.00000000E+00  0.00000000E+00
  0.00000000E+00  0.00000000E+00  0.00000000E+00  0.00000000E+00  0.00000000E+00
IOpCl                                      I                0
IROHF                                      I                0
Alpha Orbital Energies                     R   N=          56
 -1.41719829E+00 -1.39285287E+00 -1.34633479E+00 -1.31579184E+00 -1.29018996E+00
 -1.23820447E+00 -1.16460925E+00 -1.10791878E+00 -1.02948019E+00 -9.50242573E-01
 -9.47450256E-01 -8.61765254E-01 -8.17023113E-01 -7.95847593E-01 -7.85168671E-01
 -7.63878509E-01 -7.57463023E-01 -7.43552324E-01 -7.20369541E-01 -6.97874166E-01
 -6.74295554E-01 -6.61074447E-01 -6.50911674E-01 -6.23332213E-01 -6.12689117E-01
 -6.04861566E-01 -5.80059680E-01 -5.77136111E-01 -5.29476992E-01 -5.24178454E-01
 -5.03197134E-01 -4.88522753E-01 -3.14690454E-01 -2.52189326E-01 -2.22398090E-01
 -1.98496391E-01 -1.77776318E-01 -1.69360709E-01 -1.62177041E-01 -1.26887040E-01
 -1.08908191E-01 -8.23721947E-02 -7.47661111E-02 -6.61686681E-02 -5.20884062E-02
 -4.23619205E-02 -3.70497558E-02 -3.45370889E-02 -1.90900315E-02  2.38173754E-03
  4.16869048E-02  5.26200108E-02  5.98690752E-02  6.86125047E-02  1.55884845E-01
  2.69672172E-01
Alpha MO coefficients                      R   N=        3136
 -4.10660374E-05  4.54457676E-03  1.79391109E-03  2.28315358E-03 -1.85843957E-03
  7.24611410E-04 -5.07885841E-04  5.20714067E-04  2.70034538E-02  2.30122026E-02
 -3.29585531E-04  1.01414131E-02  9.83945827E-02  4.05927626E-02  4.50830696E-02
  6.46758166E-02  4.71358012E-01  7.98614173E-02  8.22440411E-02  1.26075147E-01
  3.67017551E-01 -1.25298626E-02 -2.41224265E-01  3.19971739E-02  5.13195618E-01
 -1.17063601E-02  2.03651850E-01 -3.90992766E-02  2.51676204E-01 -1.09579665E-01
  1.44174565E-02 -8.46342080E-02  2.20495542E-02 -1.29773069E-03  2.27572196E-03
  2.39500853E-02  2.56638868E-01 -1.65656768E-02  1.64830473E-02 -2.19997559E-02
  1.62029137E-01 -1.25324193E-02 -1.16001116E-01 -1.28296224E-02  1.67251827E-01
  3.75352452E-02  6.25118264E-02 -4.95144810E-02  3.72622785E-02  2.20193049E-02
 -3.56782816E-03 -2.61003589E-02 -1.08119347E-03  8.49724380E-03  1.05955534E-02
  7.60480054E-03 -6.34006605E-03 -5.38154036E-03 -7.86627338E-04 -1.61498716E-03
 -2.84273297E-03 -6.54988686E-04 -2.88702318E-03 -5.88846653E-04 -2.54679051E-02
 -1.41810556E-02  2.98426216E-03 -4.82201164E-03 -6.10658532E-02 -1.91117604E-02
 -2.68017641E-02 -3.11749118E-02 -2.27608421E-01 -3.06158384E-02 -5.83008228E-02
 -3.04092039E-02 -2.09342447E-01  9.76139816E-03  1.24804234E-01 -5.53549156E-03
 -1.73905356E-01  7.29331528E-03 -6.43471373E-02  5.73948895E-02  6.03910947E-02
 -3.39280442E-02  6.54708375E-02  1.11780840E-01 -1.62543594E-02  1.96050340E-03
 -1.25325698E-03 -1.52772039E-02  5.03029340E-01 -6.77192991E-02  1.57983715E-01
  9.00147558E-02  4.80948131E-01 -3.91183723E-02 -2.79936666E-01  2.69011144E-03
  3.94488622E-01  6.64767148E-02  1.63133996E-01 -6.77372304E-02  1.15224034E-01
  6.10659950E-02 -1.16348839E-02 -6.85332427E-02 -1.02668863E-03 -5.63659021E-03
  3.55264221E-02  2.37542884E-02  5.33121040E-01  1.56404119E-01 -1.32018285E-01
  1.90399743E-02  4.67539674E-01 -1.32065527E-02  3.05079270E-01  2.66514193E-02
  4.84804814E-01 -5.40259459E-02 -1.95991386E-01 -3.13532187E-02  1.79122753E-01
 -1.26401997E-01  1.16436038E-02 -1.59167542E-02  2.11644999E-02 -3.82093455E-02
 -6.64241210E-03 -3.99316030E-02 -2.16915345E-04 -9.77235836E-03 -4.04176536E-03
 -9.71112086E-03 -4.51464460E-02 -1.08794751E-02 -1.43042736E-02 -1.07194888E-02
 -2.66691030E-02  8.29635861E-03  4.64889455E-03  1.36469448E-02  4.44192178E-02
 -3.04910786E-02 -6.45736540E-03  2.88844980E-02  6.01891649E-03 -2.87711109E-03
  1.38223107E-02  8.33518196E-03  2.18825916E-02 -1.60662443E-03 -8.12334503E-03
  1.51035144E-03  6.03779032E-03 -4.21506236E-04  4.31811497E-03  1.74310977E-03
  3.68759146E-03  1.60199238E-03 -2.81405505E-04 -1.64301381E-03  1.52283193E-01
  7.45566153E-03  1.24615987E-03  7.81178008E-04 -3.93692540E-02 -3.23302568E-03
  2.36407648E-02  2.41583312E-04 -5.14288163E-02  4.13057516E-03 -2.71551609E-02
 -2.11323692E-03  1.27121160E-02  2.62720613E-02  1.56719699E-02  2.61880799E-03
  3.53238079E-02  4.48669409E-03  5.08762548E-02 -1.03548727E-02  9.69856556E-02
 -3.57035792E-02  3.65890758E-01 -1.51468025E-01  5.92442908E-01 -4.32375758E-02
 -1.85288790E-01 -3.85870857E-02 -4.89244802E-01 -2.45556024E-02 -8.27030425E-02
 -4.61289094E-02 -2.46875856E-01  8.97718305E-02  4.96259667E-02  9.40977605E-02
  2.69928322E-02 -5.00539767E-03  6.72387256E-03  1.71754022E-02 -2.02509312E-02
  1.20154322E-02  1.76275195E-01  3.90284987E-02  2.34135420E-01 -5.41638666E-03
 -6.05675007E-02  3.55973627E-03 -9.54364159E-02 -1.91437271E-02 -4.07741303E-04
  3.35159773E-02 -1.42084583E-02 -6.42984450E-03  6.45527433E-03  9.20125829E-03
 -1.23076584E-02  6.75934905E-03 -4.86534238E-03 -3.56621344E-03 -1.05469674E-03
  4.33598275E-04  2.70704722E-03 -1.67544322E-04 -3.76666177E-03  3.64350972E-04
 -1.39747833E-03 -1.96634291E-04  5.82525753E-03  2.14799090E-03  2.08707843E-03
 -1.28101588E-03 -5.58237848E-03 -6.39881757E-03  1.11046011E-02 -1.18172597E-02
 -1.33922580E-02 -1.66126424E-02  1.22568705E-01 -5.12137604E-02  1.76894925E-01
 -1.36993138E-02 -4.11143315E-02 -1.53820979E-02 -1.64711569E-01 -2.14620109E-04
 -3.64505339E-02  3.09079564E-02 -1.46196689E-02 -1.39730430E-02 -1.58102625E-02
  7.08089783E-02  3.63114480E-03 -1.42198297E-03  2.33443789E-03  1.23307306E-03
  6.51462388E-02 -1.67743764E-01 -3.74304445E-01  1.34901652E-01 -5.27438064E-01
 -2.58520996E-02  1.18411090E-01  4.96818570E-02  5.83125410E-01  2.31999999E-02
  1.15138808E-01 -3.58424786E-02  2.14480645E-01  8.00042915E-02 -4.75566556E-02
 -9.24260662E-02 -2.22709521E-04  2.88802972E-04  7.80263992E-02  5.03541580E-02
  6.30163624E-02 -1.12186124E-01 -3.74082016E-01 -4.73885825E-02  5.36773838E-01
 -7.49705300E-02  1.61712715E-01  3.66594345E-03 -5.34324368E-01 -6.87710781E-02
  7.67831503E-02  6.31890451E-03 -3.40536061E-01  1.04089529E-01 -6.71977224E-02
  3.26958445E-03 -9.39095838E-02  7.80405195E-02  1.12516547E-01  8.45096513E-02
  1.42634851E-01  1.93093286E-02 -6.06341051E-03  2.63839381E-02  7.37956169E-03
  3.97704378E-02  1.69319202E-02  6.30474599E-02  6.61118359E-02 -1.51397231E-02
 -4.14115978E-04 -1.33072762E-02 -1.21325729E-01  4.53260304E-02  9.89103773E-03
 -7.21283257E-02  1.18361937E-02  1.73348844E-02 -1.05819917E-02 -2.68164772E-02
 -8.18799231E-03  5.34324200E-03 -1.48641728E-03 -8.21177617E-03 -3.33628937E-02
  7.89457882E-03 -1.10787348E-02 -1.07103603E-02 -2.40356774E-02 -7.03507452E-03
  4.29349023E-03  7.67921509E-03  1.98391005E-02 -2.95867761E-02 -9.31966446E-03
 -5.84493219E-03  1.03787478E-01  4.05653301E-02  1.73487737E-01  2.26472853E-02
 -1.90190156E-01  2.07413345E-02 -9.97231184E-03  2.73420979E-03  1.94702848E-01
 -1.39305232E-01 -5.11507169E-02 -3.16002842E-02 -2.43610367E-01 -1.32457952E-01
 -4.79471486E-02 -7.31181312E-02 -2.91298336E-01  3.56224245E-02  2.20479322E-01
  6.54378710E-02  2.18757935E-01  1.28882732E-02  5.70784019E-02  2.97426989E-02
 -4.59695417E-02  1.30572805E-01  7.61444586E-03  2.98534399E-01  4.14186693E-01
 -9.49591832E-02  2.79569502E-02  3.79964684E-02 -1.23110581E-01  2.51057404E-03
  1.08117934E-02 -7.00394866E-02  1.96174733E-01  1.11325385E-01 -1.47027125E-01
 -1.64293954E-01 -1.26713340E-01  4.05629803E-02 -4.16097381E-02 -5.51274043E-02
 -1.62042624E-01  1.26629146E-01 -5.83207910E-02 -1.47194541E-01 -2.39394651E-01
 -4.58731646E-02  4.25023584E-02  4.91247815E-02  5.45898740E-02 -4.49379835E-02
 -1.01973626E-01 -6.27874669E-02 -1.76606100E-01 -9.45629280E-03 -1.79244320E-01
 -2.79240015E-02  1.79572757E-01 -4.02895451E-03 -2.40396139E-02 -6.92877273E-03
 -1.12224301E-01  2.48393685E-01  5.24518925E-02  2.23837130E-02  3.81086974E-01
  8.82887964E-02  8.34320547E-02 -3.17734488E-02  1.09481562E-01 -1.12200023E-01
 -5.87940974E-02 -2.02449551E-01 -1.02325583E-01 -3.77787269E-02 -2.67155828E-02
 -7.02972441E-02 -1.71025615E-01 -3.28904899E-02 -3.51293450E-02  9.04095407E-03
  1.72276426E-01 -4.02086697E-02  8.12039382E-02  1.61493561E-01  2.70798833E-01
 -2.86285228E-02 -2.03453495E-02  1.17848446E-01  2.46492465E-01  6.50341298E-02
 -1.59825708E-01 -8.35652713E-02 -1.56682906E-01  2.99410136E-02 -7.05965465E-02
 -3.35042001E-02 -1.03187615E-01  1.93630379E-01 -3.11818458E-02 -2.08127131E-01
 -3.37597000E-01 -3.72513214E-02  5.93848686E-02  3.79397794E-02 -1.04058671E-01
  8.91319368E-02 -1.55720477E-01 -9.43345113E-02 -1.43923942E-01  4.04668226E-02
 -9.75501153E-02 -2.33650108E-02  1.00952056E-01  2.10697024E-02 -3.74639830E-02
 -9.14840064E-03  1.61411690E-02  1.89063556E-01  1.86336576E-02 -2.07028343E-02
  2.01129122E-01 -2.99535563E-02  3.15313232E-02 -1.78343042E-01 -2.03184543E-01
 -2.78113785E-02  1.03610461E-01 -1.10885552E-01  9.45085222E-02 -1.62848122E-03
  8.06493726E-02 -4.10433986E-02  4.68273301E-02  1.92379943E-01 -3.00765533E-02
  3.12327474E-01  3.25060997E-01 -2.54089393E-02 -6.30116660E-02 -1.15963373E-01
  2.77046802E-01 -3.26451255E-02 -2.28090668E-02  7.49321230E-02 -1.21135766E-01
  1.15476117E-01  6.10472956E-02 -1.32788806E-01  8.15478820E-02  3.97744704E-02
  4.93919977E-02 -4.67396436E-02 -3.24943355E-02 -2.06494673E-01 -3.42048296E-02
  2.16258405E-01  4.17428485E-01 -5.51423186E-03 -6.82865373E-02  1.93070874E-02
 -1.03937433E-01  9.12612148E-02  2.19931592E-01  1.27703405E-01  1.52757270E-01
 -8.35325665E-02  7.64513991E-02 -2.81449032E-02 -1.09036454E-01 -4.22752510E-02
  5.89721829E-02 -1.33805939E-02 -1.13494708E-01 -1.36678663E-01 -1.04497516E-02
 -9.76800393E-02  2.64953048E-02  1.75933544E-01 -4.55468186E-02 -2.75032876E-01
 -1.64185872E-01  1.29040093E-01  2.65568021E-02 -1.46266315E-02  1.24047947E-01
  7.76894219E-02  9.50157772E-02 -2.23946610E-02  1.76495212E-01  1.30289921E-01
 -5.35859212E-02  8.39625827E-02 -1.44949399E-01  5.38571266E-03 -1.59278805E-01
 -1.79101576E-01  5.05734518E-01  4.39441388E-02 -5.08777748E-02  5.93167590E-02
 -1.09360829E-01 -1.88888657E-01  2.37388628E-02  1.81767115E-01  1.10292155E-01
 -8.99679994E-02  8.06677900E-02  9.25208147E-02  1.13047044E-01  6.47753507E-02
  3.95791780E-02 -8.80975570E-02 -2.63092384E-01  4.24486201E-02  2.98553417E-02
 -7.16408564E-02  1.36676630E-01  2.14748527E-01 -1.63752455E-01 -8.82426974E-02
  3.11758900E-01 -1.98422468E-01  1.46080420E-01 -4.38623699E-03 -2.09643480E-01
 -1.04432859E-01  1.16666884E-01 -7.59544806E-04 -1.99493366E-01 -2.81568865E-01
  2.37628347E-03 -3.97403052E-02 -1.65727415E-02  2.87082250E-01 -6.68164168E-03
 -8.12302272E-03  1.62843562E-01  3.36760675E-02 -4.36072154E-02 -8.14400366E-02
 -1.29862299E-01  1.50002937E-02 -1.09597070E-01 -3.55750712E-02 -1.71189092E-01
 -5.63195830E-02  4.39418854E-02 -1.20042104E-01  1.50879204E-01  1.54339709E-02