 Entering Gaussian System, Link 0=g16
 Input=4znn_01_gebf_pm6_10.gjf
 Output=4znn_01_gebf_pm6_10.log
 Initial command:
 /work/01114/jfonner/frontera/gaussian/16rC.01/g16/l1.exe "/tmp/Gau-197908.inp" -scrdir="/tmp/"
 Entering Link 1 = /work/01114/jfonner/frontera/gaussian/16rC.01/g16/l1.exe PID=    197909.
  
 Copyright (c) 1988-2019, Gaussian, Inc.  All Rights Reserved.
  
 This is part of the Gaussian(R) 16 program.  It is based on
 the Gaussian(R) 09 system (copyright 2009, Gaussian, Inc.),
 the Gaussian(R) 03 system (copyright 2003, Gaussian, Inc.),
 the Gaussian(R) 98 system (copyright 1998, Gaussian, Inc.),
 the Gaussian(R) 94 system (copyright 1995, Gaussian, Inc.),
 the Gaussian 92(TM) system (copyright 1992, Gaussian, Inc.),
 the Gaussian 90(TM) system (copyright 1990, Gaussian, Inc.),
 the Gaussian 88(TM) system (copyright 1988, Gaussian, Inc.),
 the Gaussian 86(TM) system (copyright 1986, Carnegie Mellon
 University), and the Gaussian 82(TM) system (copyright 1983,
 Carnegie Mellon University). Gaussian is a federally registered
 trademark of Gaussian, Inc.
  
 This software contains proprietary and confidential information,
 including trade secrets, belonging to Gaussian, Inc.
  
 This software is provided under written license and may be
 used, copied, transmitted, or stored only in accord with that
 written license.
  
 The following legend is applicable only to US Government
 contracts under FAR:
  
                    RESTRICTED RIGHTS LEGEND
  
 Use, reproduction and disclosure by the US Government is
 subject to restrictions as set forth in subparagraphs (a)
 and (c) of the Commercial Computer Software - Restricted
 Rights clause in FAR 52.227-19.
  
 Gaussian, Inc.
 340 Quinnipiac St., Bldg. 40, Wallingford CT 06492
  
  
 ---------------------------------------------------------------
 Warning -- This program may not be used in any manner that
 competes with the business of Gaussian, Inc. or will provide
 assistance to any competitor of Gaussian, Inc.  The licensee
 of this program is prohibited from giving any competitor of
 Gaussian, Inc. access to this program.  By using this program,
 the user acknowledges that Gaussian, Inc. is engaged in the
 business of creating and licensing software in the field of
 computational chemistry and represents and warrants to the
 licensee that it is not a competitor of Gaussian, Inc. and that
 it will not use this program in any manner prohibited above.
 ---------------------------------------------------------------
  

 Cite this work as:
 Gaussian 16, Revision C.01,
 M. J. Frisch, G. W. Trucks, H. B. Schlegel, G. E. Scuseria, 
 M. A. Robb, J. R. Cheeseman, G. Scalmani, V. Barone, 
 G. A. Petersson, H. Nakatsuji, X. Li, M. Caricato, A. V. Marenich, 
 J. Bloino, B. G. Janesko, R. Gomperts, B. Mennucci, H. P. Hratchian, 
 J. V. Ortiz, A. F. Izmaylov, J. L. Sonnenberg, D. Williams-Young, 
 F. Ding, F. Lipparini, F. Egidi, J. Goings, B. Peng, A. Petrone, 
 T. Henderson, D. Ranasinghe, V. G. Zakrzewski, J. Gao, N. Rega, 
 G. Zheng, W. Liang, M. Hada, M. Ehara, K. Toyota, R. Fukuda, 
 J. Hasegawa, M. Ishida, T. Nakajima, Y. Honda, O. Kitao, H. Nakai, 
 T. Vreven, K. Throssell, J. A. Montgomery, Jr., J. E. Peralta, 
 F. Ogliaro, M. J. Bearpark, J. J. Heyd, E. N. Brothers, K. N. Kudin, 
 V. N. Staroverov, T. A. Keith, R. Kobayashi, J. Normand, 
 K. Raghavachari, A. P. Rendell, J. C. Burant, S. S. Iyengar, 
 J. Tomasi, M. Cossi, J. M. Millam, M. Klene, C. Adamo, R. Cammi, 
 J. W. Ochterski, R. L. Martin, K. Morokuma, O. Farkas, 
 J. B. Foresman, and D. J. Fox, Gaussian, Inc., Wallingford CT, 2019.
 
 ******************************************
 Gaussian 16:  ES64L-G16RevC.01  3-Jul-2019
                 5-Jan-2022 
 ******************************************
 %chk=4znn_01_gebf_pm6_10.chk
 %nproc=56
 Will use up to   56 processors via shared memory.
 %mem=3gb
 ----------------------------------------------------------------------
 #p int=acc2e=12 pm6 charge nosymm int=acc2e=12 scf=(noincfock,novaracc
 ,fermi,maxcycle=128,ndamp=64,xqc)
 ----------------------------------------------------------------------
 1/18=10,28=-2,38=1,125=101,172=1/1;
 2/12=2,15=1,17=6,18=5,40=1/2;
 3/5=2,25=1,27=12,41=3900000/1,2,3;
 4/35=1/1;
 5/5=100002,7=128,8=3,13=1,18=-1,22=13,35=1,38=1,87=12,93=64/2,8;
 6/7=2,8=2,9=2,10=2,28=1,87=12/1;
 99/5=1,9=1/99;
 Leave Link    1 at Wed Jan  5 15:23:18 2022, MaxMem=   402653184 cpu:               2.4 elap:               0.0
 (Enter /work/01114/jfonner/frontera/gaussian/16rC.01/g16/l101.exe)
 --------------
 Atom number=14
 --------------
 Symbolic Z-matrix:
 Charge =  2 Multiplicity = 1
 c                    -1.636     0.175     4.6 
 o                    -1.744     1.356     4.862 
 n                    -1.095    -0.7       5.415 
 c                    -0.572    -0.311     6.669 
 c                     0.84     -0.854     6.792 
 o                     1.027    -2.022     6.72 
 n                     1.81      0.002     7.023 
 c                     3.191    -0.429     7.101 
 c                    -1.411    -0.913     7.797 
 c                    -0.727    -0.645     9.123 
 h                    -1.93928  -0.22723   3.656 
 h                    -2.40238  -0.51045   7.79129 
 h                     3.70315   0.05968   7.90337 
 h                     3.66073  -0.2038    6.16637 
 
 ITRead=  0  0  0  0  0  0  0  0  0  0  0  0  0  0
 MicOpt= -1 -1 -1 -1 -1 -1 -1 -1 -1 -1 -1 -1 -1 -1
 NAtoms=     14 NQM=       14 NQMF=       0 NMMI=      0 NMMIF=      0
                NMic=       0 NMicF=      0.
                    Isotopes and Nuclear Properties:
 (Nuclear quadrupole moments (NQMom) in fm**2, nuclear magnetic moments (NMagM)
  in nuclear magnetons)

  Atom         1           2           3           4           5           6           7           8           9          10
 IAtWgt=          12          16          14          12          12          16          14          12          12          12
 AtmWgt=  12.0000000  15.9949146  14.0030740  12.0000000  12.0000000  15.9949146  14.0030740  12.0000000  12.0000000  12.0000000
 NucSpn=           0           0           2           0           0           0           2           0           0           0
 AtZEff=  -0.0000000  -0.0000000  -0.0000000  -0.0000000  -0.0000000  -0.0000000  -0.0000000  -0.0000000  -0.0000000  -0.0000000
 NQMom=    0.0000000   0.0000000   2.0440000   0.0000000   0.0000000   0.0000000   2.0440000   0.0000000   0.0000000   0.0000000
 NMagM=    0.0000000   0.0000000   0.4037610   0.0000000   0.0000000   0.0000000   0.4037610   0.0000000   0.0000000   0.0000000
 AtZNuc=   6.0000000   8.0000000   7.0000000   6.0000000   6.0000000   8.0000000   7.0000000   6.0000000   6.0000000   6.0000000

  Atom        11          12          13          14
 IAtWgt=           1           1           1           1
 AtmWgt=   1.0078250   1.0078250   1.0078250   1.0078250
 NucSpn=           1           1           1           1
 AtZEff=  -0.0000000  -0.0000000  -0.0000000  -0.0000000
 NQMom=    0.0000000   0.0000000   0.0000000   0.0000000
 NMagM=    2.7928460   2.7928460   2.7928460   2.7928460
 AtZNuc=   1.0000000   1.0000000   1.0000000   1.0000000
 Background charge distribution read from input stream:
 Point Charges:
 XYZ=   -6.8150   -0.6680    1.6070 Q=    0.1840 A=    0.0000 R=    0.0000 C=    0.0000
 XYZ=   -5.7140    0.0020    2.3730 Q=    0.1690 A=    0.0000 R=    0.0000 C=    0.0000
 XYZ=   -4.3570   -0.6730    2.5880 Q=    0.1957 A=    0.0000 R=    0.0000 C=    0.0000
 XYZ=   -4.2120   -1.8700    2.4920 Q=   -0.4612 A=    0.0000 R=    0.0000 C=    0.0000
 XYZ=   -3.3810    0.1250    2.9530 Q=   -0.3003 A=    0.0000 R=    0.0000 C=    0.0000
 XYZ=   -2.0620   -0.3900    3.2740 Q=    0.2639 A=    0.0000 R=    0.0000 C=    0.0000
 XYZ=   -0.9930   -0.0450    2.1970 Q=   -1.2213 A=    0.0000 R=    0.0000 C=    0.0000
 XYZ=    0.3900   -0.4880    2.6400 Q=    0.9359 A=    0.0000 R=    0.0000 C=    0.0000
 XYZ=   -1.3780   -0.6620    0.8970 Q=    0.8742 A=    0.0000 R=    0.0000 C=    0.0000
 XYZ=   -2.8000   -0.3490    7.7890 Q=    0.9737 A=    0.0000 R=    0.0000 C=    0.0000
 XYZ=    3.9110    0.2580    8.2290 Q=    0.2652 A=    0.0000 R=    0.0000 C=    0.0000
 XYZ=    4.0640    1.4780    8.2280 Q=   -0.5489 A=    0.0000 R=    0.0000 C=    0.0000
 XYZ=    3.8710   -0.1030    5.7480 Q=    0.4467 A=    0.0000 R=    0.0000 C=    0.0000
 XYZ=    5.2470   -0.6430    5.5810 Q=   -0.4177 A=    0.0000 R=    0.0000 C=    0.0000
 XYZ=    5.8610   -0.6890    4.3530 Q=   -0.2968 A=    0.0000 R=    0.0000 C=    0.0000
 XYZ=    6.1080   -1.1970    6.4480 Q=    0.2630 A=    0.0000 R=    0.0000 C=    0.0000
 XYZ=    7.0590   -1.2270    4.4820 Q=    0.6103 A=    0.0000 R=    0.0000 C=    0.0000
 XYZ=    7.2390   -1.5230    5.7510 Q=   -0.3347 A=    0.0000 R=    0.0000 C=    0.0000
 XYZ=    4.3640   -0.5270    9.1890 Q=   -0.5070 A=    0.0000 R=    0.0000 C=    0.0000
 XYZ=    5.0670    0.0200   10.3260 Q=    0.3996 A=    0.0000 R=    0.0000 C=    0.0000
 XYZ=    4.2710    0.8170   11.2960 Q=    0.1621 A=    0.0000 R=    0.0000 C=    0.0000
 XYZ=    4.3590    2.0330   11.3670 Q=   -0.2980 A=    0.0000 R=    0.0000 C=    0.0000
 XYZ=    3.4920    0.1040   12.0730 Q=   -0.4667 A=    0.0000 R=    0.0000 C=    0.0000
 XYZ=    2.5850    0.6770   13.0850 Q=    0.2746 A=    0.0000 R=    0.0000 C=    0.0000
 XYZ=    3.0060    0.0470   14.3610 Q=    0.2391 A=    0.0000 R=    0.0000 C=    0.0000
 XYZ=    2.9580   -1.1690   14.5150 Q=   -0.4626 A=    0.0000 R=    0.0000 C=    0.0000
 XYZ=    1.1270    0.3300   12.8270 Q=   -1.2217 A=    0.0000 R=    0.0000 C=    0.0000
 XYZ=    0.2480    0.6750   14.0380 Q=    0.9822 A=    0.0000 R=    0.0000 C=    0.0000
 XYZ=    0.6740    1.0470   11.5960 Q=    0.9278 A=    0.0000 R=    0.0000 C=    0.0000
 XYZ=    3.4810    0.8870   15.2620 Q=   -0.6284 A=    0.0000 R=    0.0000 C=    0.0000
 XYZ=    4.1630    0.3920   16.4420 Q=    0.1821 A=    0.0000 R=    0.0000 C=    0.0000
 XYZ=    3.4240    0.9650   17.6310 Q=    0.3166 A=    0.0000 R=    0.0000 C=    0.0000
 XYZ=    3.1360    2.1100   17.6120 Q=   -0.5694 A=    0.0000 R=    0.0000 C=    0.0000
 XYZ=    5.6880    0.7500   16.3890 Q=   -0.3175 A=    0.0000 R=    0.0000 C=    0.0000
 XYZ=    6.2640    0.1300   15.2360 Q=   -0.3082 A=    0.0000 R=    0.0000 C=    0.0000
 XYZ=    6.4200    0.2100   17.5690 Q=    0.9463 A=    0.0000 R=    0.0000 C=    0.0000
 XYZ=    3.1730    0.1290   18.6470 Q=   -0.5421 A=    0.0000 R=    0.0000 C=    0.0000
 XYZ=    2.5590    0.5160   19.9030 Q=    0.0236 A=    0.0000 R=    0.0000 C=    0.0000
 XYZ=    3.3500   -0.1220   21.0140 Q=    0.1847 A=    0.0000 R=    0.0000 C=    0.0000
 XYZ=    3.3660   -1.3390   21.1400 Q=   -0.4163 A=    0.0000 R=    0.0000 C=    0.0000
 XYZ=    1.1380   -0.0210   19.9830 Q=   -0.2907 A=    0.0000 R=    0.0000 C=    0.0000
 XYZ=    0.3930    0.3940   18.8240 Q=   -0.3415 A=    0.0000 R=    0.0000 C=    0.0000
 XYZ=    0.4860    0.5010   21.1670 Q=    0.7765 A=    0.0000 R=    0.0000 C=    0.0000
 XYZ=    4.0670    0.6880   21.7680 Q=   -0.6191 A=    0.0000 R=    0.0000 C=    0.0000
 XYZ=    4.8880    0.2050   22.8510 Q=    0.2833 A=    0.0000 R=    0.0000 C=    0.0000
 XYZ=    4.3500    0.7690   24.1740 Q=    0.1730 A=    0.0000 R=    0.0000 C=    0.0000
 XYZ=    4.1610    1.9810   24.2690 Q=   -0.2861 A=    0.0000 R=    0.0000 C=    0.0000
 XYZ=    6.3620    0.6140   22.6520 Q=   -1.1933 A=    0.0000 R=    0.0000 C=    0.0000
 XYZ=    7.1520    0.2970   23.8740 Q=    0.8585 A=    0.0000 R=    0.0000 C=    0.0000
 XYZ=    6.9530   -0.1210   21.4550 Q=    0.9590 A=    0.0000 R=    0.0000 C=    0.0000
 XYZ=    4.0650   -0.1200   25.1510 Q=   -0.4907 A=    0.0000 R=    0.0000 C=    0.0000
 XYZ=    3.7200    0.3130   26.5150 Q=   -0.3576 A=    0.0000 R=    0.0000 C=    0.0000
 XYZ=    4.9410    0.1400   27.4200 Q=    0.0549 A=    0.0000 R=    0.0000 C=    0.0000
 XYZ=    5.7140   -0.8090   27.2870 Q=   -0.0565 A=    0.0000 R=    0.0000 C=    0.0000
 XYZ=    2.4990   -0.4220   27.0620 Q=    1.1023 A=    0.0000 R=    0.0000 C=    0.0000
 XYZ=    5.2500    0.9550   28.2940 Q=    0.3115 A=    0.0000 R=    0.0000 C=    0.0000
 Pt Chg Charge=              1.3851 electrons
 Pt Chg Dipole moment (Debye):
    X=            -16.5675    Y=            -10.9798    Z=             72.8018  Tot=             75.4661
 Pt Chg Quadrupole moment (Debye-Ang):
   XX=            240.6934   YY=            -32.7162   ZZ=           2240.6144
   XY=            -59.2597   XZ=            131.0378   YZ=           -148.2263
 Pt Chg Traceless Quadrupole moment (Debye-Ang):
   XX=           -575.5038   YY=           -848.9135   ZZ=           1424.4172
   XY=            -59.2597   XZ=            131.0378   YZ=           -148.2263
 Pt Chg Octapole moment (Debye-Ang**2):
  XXX=           1520.9444  YYY=            -31.7017  ZZZ=          71959.3102  XYY=           -108.1043
  XXY=           -263.9438  XXZ=           4569.1133  XZZ=           9165.9967  YZZ=          -3080.1740
  YYZ=           -505.7978  XYZ=           -875.7013
 Pt Chg Hexadecapole moment (Debye-Ang**3):
 XXXX=          19246.4602 YYYY=           -142.5850 ZZZZ=        2198004.1088 XXXY=          -1384.5065
 XXXZ=          40522.2429 YYYX=           -247.0158 YYYZ=           -664.2511 ZZZX=         309947.8769
 ZZZY=         -68812.8138 XXYY=           -614.1730 XXZZ=         111020.0885 YYZZ=          -8879.5321
 XXYZ=          -3909.9674 YYXZ=          -2129.3576 ZZXY=         -15776.1281
 Leave Link  101 at Wed Jan  5 15:23:18 2022, MaxMem=   402653184 cpu:               5.9 elap:               0.1
 (Enter /work/01114/jfonner/frontera/gaussian/16rC.01/g16/l202.exe)
                          Input orientation:                          
 ---------------------------------------------------------------------
 Center     Atomic      Atomic             Coordinates (Angstroms)
 Number     Number       Type             X           Y           Z
 ---------------------------------------------------------------------
      1          6           0       -1.636000    0.175000    4.600000
      2          8           0       -1.744000    1.356000    4.862000
      3          7           0       -1.095000   -0.700000    5.415000
      4          6           0       -0.572000   -0.311000    6.669000
      5          6           0        0.840000   -0.854000    6.792000
      6          8           0        1.027000   -2.022000    6.720000
      7          7           0        1.810000    0.002000    7.023000
      8          6           0        3.191000   -0.429000    7.101000
      9          6           0       -1.411000   -0.913000    7.797000
     10          6           0       -0.727000   -0.645000    9.123000
     11          1           0       -1.939276   -0.227232    3.656001
     12          1           0       -2.402375   -0.510455    7.791290
     13          1           0        3.703151    0.059677    7.903369
     14          1           0        3.660734   -0.203804    6.166368
 ---------------------------------------------------------------------
                    Distance matrix (angstroms):
                    1          2          3          4          5
     1  C    0.000000
     2  O    1.214524   0.000000
     3  N    1.312452   2.225791   0.000000
     4  C    2.376774   2.723550   1.413282   0.000000
     5  C    3.463276   3.909739   2.379931   1.517802   0.000000
     6  O    4.051269   4.747788   2.820212   2.342418   1.185064
     7  N    4.216133   4.374260   3.393743   2.428417   1.314153
     8  C    5.469895   5.705574   4.613657   3.789554   2.409005
     9  C    3.384550   3.724711   2.412291   1.529284   2.465868
    10  C    4.685745   4.816058   3.726622   2.481471   2.816510
    11  H    1.070000   1.999797   2.007583   3.309777   4.236945
    12  H    3.352836   3.535230   2.718807   2.156291   3.410220
    13  H    6.279497   6.371957   5.458144   4.465197   3.204306
    14  H    5.536460   5.774557   4.840224   4.263820   2.961538
                    6          7          8          9         10
     6  O    0.000000
     7  N    2.191227   0.000000
     8  C    2.713983   1.448795   0.000000
     9  C    2.886807   3.436734   4.679431   0.000000
    10  C    3.278270   3.356334   4.414280   1.515901   0.000000
    11  H    4.626886   5.044432   6.182916   4.230511   5.615355
    12  H    3.897826   4.312422   5.636398   1.070000   2.144396
    13  H    3.591034   2.088635   1.070000   5.206914   4.648688
    14  H    3.247907   2.049729   1.070000   5.374421   5.309288
                   11         12         13         14
    11  H    0.000000
    12  H    4.170766   0.000000
    13  H    7.068198   6.133111   0.000000
    14  H    6.136986   6.284560   1.757383   0.000000
 Symmetry turned off by external request.
 Stoichiometry    C6H4N2O2(2+)
 Framework group  C1[X(C6H4N2O2)]
 Deg. of freedom    36
 Full point group                 C1      NOp   1
 Rotational constants (GHZ):           2.0099888           0.9854869           0.8075106
 Leave Link  202 at Wed Jan  5 15:23:18 2022, MaxMem=   402653184 cpu:               1.2 elap:               0.0
 (Enter /work/01114/jfonner/frontera/gaussian/16rC.01/g16/l301.exe)
 Standard basis: VSTO-6G (5D, 7F)
 Ernie: Thresh=  0.10000D-02 Tol=  0.10000D-05 Strict=F.
  NNHCO=     0 NNPyr=     0 NCTC=     0               EPep=         0.000000000
    EC=       200.761637073  ECS=         3.309198190   EG=         0.281624150
   EHC=         0.001277199  EAt=       -61.016910202  AtH=         2.516083127
 EPDDG=         0.000000000  ECC=       204.353736613 EAtT=        63.532993329
    44 basis functions,   264 primitive gaussians,    44 cartesian basis functions
    24 alpha electrons       24 beta electrons
       nuclear repulsion energy       267.8867299418 Hartrees.
 IExCor=    0 DFT=F Ex=HF Corr=None ExCW=0 ScaHFX=  1.000000
 ScaDFX=  1.000000  1.000000  1.000000  1.000000 ScalE2=  1.000000  1.000000
 IRadAn=      5 IRanWt=     -1 IRanGd=            0 ICorTp=0 IEmpDi=  4
 Integral buffers will be    131072 words long.
 Regular integral format.
 Two-electron integral symmetry is turned off.
 Background charge distribution read from rwf.
 PtFMM for NChg=        70 BoxLen=    40.00 Levels= 1 LMax=20 SMax=    51.8 ICnFMM=     1:
 Self energy of the charges =        -3.1186375943 a.u.
 MM   energy of the charges =         0.0000000000 a.u.
 Nuclei-charges interaction =        10.8975802652 a.u.
 Nuclear repulsion after external point charges =      275.6656726128 Hartrees.
 Leave Link  301 at Wed Jan  5 15:23:18 2022, MaxMem=   402653184 cpu:               3.0 elap:               0.1
 (Enter /work/01114/jfonner/frontera/gaussian/16rC.01/g16/l302.exe)
 Do NDO integrals.
 NPDir=0 NMtPBC=     1 NCelOv=     1 NCel=       1 NClECP=     1 NCelD=      1
         NCelK=      1 NCelE2=     1 NClLst=     1 CellRange=     0.0.
 One-electron integrals computed using PRISM.
 NBasis=    44 RedAO= F EigKep=  0.00D+00  NBF=    44
 NBsUse=    44 1.00D-04 EigRej=  0.00D+00 NBFU=    44
 Leave Link  302 at Wed Jan  5 15:23:18 2022, MaxMem=   402653184 cpu:               5.6 elap:               0.1
 (Enter /work/01114/jfonner/frontera/gaussian/16rC.01/g16/l303.exe)
 DipDrv:  MaxL=1.
 Leave Link  303 at Wed Jan  5 15:23:18 2022, MaxMem=   402653184 cpu:               1.7 elap:               0.1
 (Enter /work/01114/jfonner/frontera/gaussian/16rC.01/g16/l401.exe)
 Simple Huckel Guess.
 JPrj=0 DoOrth=F DoCkMO=F.
 Leave Link  401 at Wed Jan  5 15:23:18 2022, MaxMem=   402653184 cpu:               3.1 elap:               0.1
 (Enter /work/01114/jfonner/frontera/gaussian/16rC.01/g16/l502.exe)
 Keep J ints in memory in canonical form, NReq=865179.
 FoFCou: FMM=F IPFlag=           0 FMFlag=           0 FMFlg1=           0
         NFxFlg=           0 DoJE=F BraDBF=F KetDBF=F FulRan=T
         wScrn=  0.000000 ICntrl=       600 IOpCl=  2 I1Cent=           0 NGrid=           0
         NMat0=    1 NMatS0=    104 NMatT0=    0 NMatD0=    1 NMtDS0=    0 NMtDT0=    0
 Symmetry not used in FoFCou.
 Two-electron integral symmetry not used.
 Closed shell SCF:
 Using DIIS extrapolation, IDIIS=    10.
 Overlap will be assumed to be unity.
 NGot=   402653184 LenX=   402581398 LenY=   402579021
 Requested convergence on RMS density matrix=1.00D-08 within 128 cycles.
 Requested convergence on MAX density matrix=1.00D-06.
 Requested convergence on             energy=1.00D-06.
 Level shift goal  0.100 maximum shift  0.100.
 No special actions if energy rises.
 Dynamic level shift is on during FON iterations.

 Cycle   1  Pass 1  IDiag  1:
 E= 0.316412890417951    
 DIIS: error= 5.94D-02 at cycle   1 NSaved=   1.
 NSaved= 1 IEnMin= 1 EnMin= 0.316412890417951     IErMin= 1 ErrMin= 5.94D-02
 ErrMax= 5.94D-02  0.00D+00 EMaxC= 1.00D+00 BMatC= 1.90D-01 BMatP= 1.90D-01
 IDIUse=1 WtCom= 1.00D+00 WtEn= 0.00D+00
 Coeff-Com:  0.100D+01
 Coeff:      0.100D+01
 Gap=     0.144 Goal=     0.100 Shift=    0.000
 T= 1906. Gap= 0.066 NK=0 IS=    1 IE=   44 IFin=   27
          NO(<0.9)=   0  NV(>0.1)=   0     24.00e < EF      0.00e >EF  Err=0.0D+00
 GapD=    0.144 DampG=1.000 DampE=0.500 DampFc=0.5000 IDamp=-1.
 Damping current iteration by 5.00D-01
 RMSDP=2.59D-02 MaxDP=2.46D-01              OVMax= 0.00D+00

 Cycle   2  Pass 1  IDiag  1:
 E=-0.366802864351712E-01 Delta-E=       -0.353093176853 Rises=F Damp=T
 DIIS: error= 3.62D-02 at cycle   2 NSaved=   2.
 NSaved= 2 IEnMin= 2 EnMin=-0.366802864351712E-01 IErMin= 2 ErrMin= 3.62D-02
 ErrMax= 3.62D-02  0.00D+00 EMaxC= 1.00D+00 BMatC= 7.33D-02 BMatP= 1.90D-01
 IDIUse=1 WtCom= 1.00D+00 WtEn= 0.00D+00
 Coeff-Com: -0.105D+01 0.205D+01
 Coeff:     -0.105D+01 0.205D+01
 Gap=     0.187 Goal=     0.100 Shift=    0.000
 T= 1823. Gap= 0.159 NK=4 IS=   17 IE=   33 IFin=   25
          NO(<0.9)=   0  NV(>0.1)=   0     24.00e < EF      0.00e >EF  Err=0.0D+00
 GapD=    0.187 DampG=1.000 DampE=0.500 DampFc=0.5000 IDamp=-1.
 Damping current iteration by 5.00D-01
 RMSDP=1.69D-02 MaxDP=1.55D-01 DE=-3.53D-01 OVMax= 0.00D+00

 Cycle   3  Pass 1  IDiag  1:
 E=-0.264510199030497     Delta-E=       -0.227829912595 Rises=F Damp=T
 DIIS: error= 2.27D-02 at cycle   3 NSaved=   3.
 NSaved= 3 IEnMin= 3 EnMin=-0.264510199030497     IErMin= 3 ErrMin= 2.27D-02
 ErrMax= 2.27D-02  0.00D+00 EMaxC= 1.00D+00 BMatC= 2.80D-02 BMatP= 7.33D-02
 IDIUse=1 WtCom= 1.00D+00 WtEn= 0.00D+00
 Coeff-Com:  0.286D+00-0.217D+01 0.289D+01
 Coeff:      0.286D+00-0.217D+01 0.289D+01
 Gap=     0.162 Goal=     0.100 Shift=    0.000
 T= 1661. Gap= 0.164 NK=0 IS=   25 IE=   44 IFin=   24
          NO(<0.9)=   0  NV(>0.1)=   0     24.00e < EF      0.00e >EF  Err=0.0D+00
 GapD=    0.162 DampG=1.000 DampE=0.500 DampFc=0.5000 IDamp=-1.
 Damping current iteration by 5.00D-01
 RMSDP=1.38D-02 MaxDP=1.17D-01 DE=-2.28D-01 OVMax= 0.00D+00

 Cycle   4  Pass 1  IDiag  1:
 E=-0.402823958305419     Delta-E=       -0.138313759275 Rises=F Damp=T
 DIIS: error= 1.17D-02 at cycle   4 NSaved=   4.
 NSaved= 4 IEnMin= 4 EnMin=-0.402823958305419     IErMin= 4 ErrMin= 1.17D-02
 ErrMax= 1.17D-02  0.00D+00 EMaxC= 1.00D+00 BMatC= 7.57D-03 BMatP= 2.80D-02
 IDIUse=1 WtCom= 1.00D+00 WtEn= 0.00D+00
 Coeff-Com:  0.771D-01 0.197D+00-0.179D+01 0.251D+01
 Coeff:      0.771D-01 0.197D+00-0.179D+01 0.251D+01
 Gap=     0.167 Goal=     0.100 Shift=    0.000
 T= 1352. Gap= 0.168 NK=0 IS=   25 IE=   44 IFin=   24
          NO(<0.9)=   0  NV(>0.1)=   0     24.00e < EF      0.00e >EF  Err=0.0D+00
 GapD=    0.167 DampG=1.000 DampE=0.500 DampFc=0.5000 IDamp=-1.
 Damping current iteration by 5.00D-01
 RMSDP=7.91D-03 MaxDP=6.55D-02 DE=-1.38D-01 OVMax= 0.00D+00

 Cycle   5  Pass 1  IDiag  1:
 E=-0.488334652909771     Delta-E=       -0.085510694604 Rises=F Damp=T
 DIIS: error= 5.80D-03 at cycle   5 NSaved=   5.
 NSaved= 5 IEnMin= 5 EnMin=-0.488334652909771     IErMin= 5 ErrMin= 5.80D-03
 ErrMax= 5.80D-03  0.00D+00 EMaxC= 1.00D+00 BMatC= 1.99D-03 BMatP= 7.57D-03
 IDIUse=1 WtCom= 1.00D+00 WtEn= 0.00D+00
 Coeff-Com: -0.162D-01 0.121D+00-0.646D-01-0.134D+01 0.230D+01
 Coeff:     -0.162D-01 0.121D+00-0.646D-01-0.134D+01 0.230D+01
 Gap=     0.168 Goal=     0.100 Shift=    0.000
 T= 1014. Gap= 0.168 NK=0 IS=   25 IE=   44 IFin=   24
          NO(<0.9)=   0  NV(>0.1)=   0     24.00e < EF      0.00e >EF  Err=0.0D+00
 GapD=    0.168 DampG=1.000 DampE=1.000 DampFc=1.0000 IDamp=-1.
 RMSDP=4.56D-03 MaxDP=3.72D-02 DE=-8.55D-02 OVMax= 0.00D+00

 Cycle   6  Pass 1  IDiag  3:
 E=-0.590011960984498     Delta-E=       -0.101677308075 Rises=F Damp=F
 DIIS: error= 4.34D-04 at cycle   6 NSaved=   6.
 NSaved= 6 IEnMin= 6 EnMin=-0.590011960984498     IErMin= 6 ErrMin= 4.34D-04
 ErrMax= 4.34D-04  0.00D+00 EMaxC= 1.00D+00 BMatC= 1.95D-05 BMatP= 1.99D-03
 IDIUse=1 WtCom= 1.00D+00 WtEn= 0.00D+00
 Coeff-Com:  0.874D-03-0.105D+00 0.311D+00 0.231D+00-0.101D+01 0.157D+01
 Coeff:      0.874D-03-0.105D+00 0.311D+00 0.231D+00-0.101D+01 0.157D+01
 Gap=     0.170 Goal=     0.100 Shift=    0.000
 RMSDP=9.82D-04 MaxDP=7.21D-03 DE=-1.02D-01 OVMax= 1.68D-02

 Cycle   7  Pass 1  IDiag  3:
 E=-0.590436658208432     Delta-E=       -0.000424697224 Rises=F Damp=F
 DIIS: error= 3.55D-04 at cycle   7 NSaved=   7.
 NSaved= 7 IEnMin= 7 EnMin=-0.590436658208432     IErMin= 7 ErrMin= 3.55D-04
 ErrMax= 3.55D-04  0.00D+00 EMaxC= 1.00D+00 BMatC= 9.71D-06 BMatP= 1.95D-05
 IDIUse=1 WtCom= 1.00D+00 WtEn= 0.00D+00
 Coeff-Com:  0.657D-02-0.226D-01 0.180D-01 0.977D-01-0.181D+00-0.309D+00
 Coeff-Com:  0.139D+01
 Coeff:      0.657D-02-0.226D-01 0.180D-01 0.977D-01-0.181D+00-0.309D+00
 Coeff:      0.139D+01
 Gap=     0.169 Goal=     0.100 Shift=    0.000
 RMSDP=8.65D-04 MaxDP=8.03D-03 DE=-4.25D-04 OVMax= 1.70D-02

 Cycle   8  Pass 1  IDiag  3:
 E=-0.590732225366139     Delta-E=       -0.000295567158 Rises=F Damp=F
 DIIS: error= 3.30D-04 at cycle   8 NSaved=   8.
 NSaved= 8 IEnMin= 8 EnMin=-0.590732225366139     IErMin= 8 ErrMin= 3.30D-04
 ErrMax= 3.30D-04  0.00D+00 EMaxC= 1.00D+00 BMatC= 7.78D-06 BMatP= 9.71D-06
 IDIUse=1 WtCom= 1.00D+00 WtEn= 0.00D+00
 Coeff-Com:  0.299D-02-0.400D-02 0.200D-02-0.958D-01 0.182D+00-0.214D+00
 Coeff-Com: -0.945D-01 0.122D+01
 Coeff:      0.299D-02-0.400D-02 0.200D-02-0.958D-01 0.182D+00-0.214D+00
 Coeff:     -0.945D-01 0.122D+01
 Gap=     0.169 Goal=     0.100 Shift=    0.000
 RMSDP=6.92D-04 MaxDP=7.11D-03 DE=-2.96D-04 OVMax= 1.53D-02

 Cycle   9  Pass 1  IDiag  3:
 E=-0.590959353041171     Delta-E=       -0.000227127675 Rises=F Damp=F
 DIIS: error= 3.59D-04 at cycle   9 NSaved=   9.
 NSaved= 9 IEnMin= 9 EnMin=-0.590959353041171     IErMin= 8 ErrMin= 3.30D-04
 ErrMax= 3.59D-04  0.00D+00 EMaxC= 1.00D+00 BMatC= 7.51D-06 BMatP= 7.78D-06
 IDIUse=1 WtCom= 1.00D+00 WtEn= 0.00D+00
 Coeff-Com:  0.346D-02-0.141D-01 0.194D-01-0.419D-02-0.770D-02-0.407D-01
 Coeff-Com:  0.157D+00-0.144D+00 0.103D+01
 Coeff:      0.346D-02-0.141D-01 0.194D-01-0.419D-02-0.770D-02-0.407D-01
 Coeff:      0.157D+00-0.144D+00 0.103D+01
 Gap=     0.169 Goal=     0.100 Shift=    0.000
 RMSDP=4.27D-04 MaxDP=4.74D-03 DE=-2.27D-04 OVMax= 1.02D-02

 Cycle  10  Pass 1  IDiag  3:
 E=-0.591100006496049     Delta-E=       -0.000140653455 Rises=F Damp=F
 DIIS: error= 3.78D-04 at cycle  10 NSaved=  10.
 NSaved=10 IEnMin=10 EnMin=-0.591100006496049     IErMin= 8 ErrMin= 3.30D-04
 ErrMax= 3.78D-04  0.00D+00 EMaxC= 1.00D+00 BMatC= 7.60D-06 BMatP= 7.51D-06
 IDIUse=1 WtCom= 1.00D+00 WtEn= 0.00D+00
 Coeff-Com:  0.347D-02-0.138D-01 0.171D-01-0.116D-02-0.648D-02-0.334D-01
 Coeff-Com:  0.137D+00-0.218D+00 0.166D+01-0.544D+00
 Coeff:      0.347D-02-0.138D-01 0.171D-01-0.116D-02-0.648D-02-0.334D-01
 Coeff:      0.137D+00-0.218D+00 0.166D+01-0.544D+00
 Gap=     0.170 Goal=     0.100 Shift=    0.000
 RMSDP=1.83D-04 MaxDP=2.10D-03 DE=-1.41D-04 OVMax= 4.51D-03

 Cycle  11  Pass 1  IDiag  3:
 E=-0.591039855764052     Delta-E=        0.000060150732 Rises=F Damp=F
 DIIS: error= 3.70D-04 at cycle  11 NSaved=  11.
 NSaved=11 IEnMin=10 EnMin=-0.591100006496049     IErMin= 8 ErrMin= 3.30D-04
 ErrMax= 3.70D-04  0.00D+00 EMaxC= 1.00D+00 BMatC= 7.48D-06 BMatP= 7.51D-06
 IDIUse=1 WtCom= 1.00D+00 WtEn= 0.00D+00
 Coeff-Com:  0.231D-02-0.135D-01 0.230D-01 0.268D-01-0.760D-01 0.449D-01
 Coeff-Com:  0.162D+00-0.465D+00 0.958D+00-0.311D+01 0.345D+01
 Coeff:      0.231D-02-0.135D-01 0.230D-01 0.268D-01-0.760D-01 0.449D-01
 Coeff:      0.162D+00-0.465D+00 0.958D+00-0.311D+01 0.345D+01
 Gap=     0.170 Goal=   None    Shift=    0.000
 RMSDP=2.03D-04 MaxDP=2.51D-03 DE= 6.02D-05 OVMax= 5.37D-03

 Cycle  12  Pass 1  IDiag  3:
 E=-0.590975175146582     Delta-E=        0.000064680617 Rises=F Damp=F
 DIIS: error= 3.63D-04 at cycle  12 NSaved=  12.
 NSaved=12 IEnMin=10 EnMin=-0.591100006496049     IErMin= 8 ErrMin= 3.30D-04
 ErrMax= 3.63D-04  0.00D+00 EMaxC= 1.00D+00 BMatC= 7.32D-06 BMatP= 7.48D-06
 IDIUse=1 WtCom= 1.00D+00 WtEn= 0.00D+00
 Coeff-Com:  0.296D-02-0.162D-01 0.361D-01-0.923D-02-0.460D-01 0.207D-02
 Coeff-Com:  0.255D+00-0.379D+00 0.922D+00 0.111D+01-0.945D+01 0.858D+01
 Coeff:      0.296D-02-0.162D-01 0.361D-01-0.923D-02-0.460D-01 0.207D-02
 Coeff:      0.255D+00-0.379D+00 0.922D+00 0.111D+01-0.945D+01 0.858D+01
 Gap=     0.170 Goal=   None    Shift=    0.000
 RMSDP=1.14D-03 MaxDP=1.46D-02 DE= 6.47D-05 OVMax= 3.13D-02

 Cycle  13  Pass 1  IDiag  3:
 E=-0.590634251753272     Delta-E=        0.000340923393 Rises=F Damp=F
 DIIS: error= 3.41D-04 at cycle  13 NSaved=  13.
 NSaved=13 IEnMin=10 EnMin=-0.591100006496049     IErMin= 8 ErrMin= 3.30D-04
 ErrMax= 3.41D-04  0.00D+00 EMaxC= 1.00D+00 BMatC= 6.49D-06 BMatP= 7.32D-06
 IDIUse=1 WtCom= 1.00D+00 WtEn= 0.00D+00
 Coeff-Com:  0.283D-02-0.209D-01 0.399D-01 0.400D-01-0.126D+00 0.101D+00
 Coeff-Com:  0.147D+00-0.457D+00 0.132D+01-0.110D+00 0.111D+01-0.367D+01
 Coeff-Com:  0.263D+01
 Coeff:      0.283D-02-0.209D-01 0.399D-01 0.400D-01-0.126D+00 0.101D+00
 Coeff:      0.147D+00-0.457D+00 0.132D+01-0.110D+00 0.111D+01-0.367D+01
 Coeff:      0.263D+01
 Gap=     0.170 Goal=   None    Shift=    0.000
 RMSDP=1.30D-03 MaxDP=1.74D-02 DE= 3.41D-04 OVMax= 3.76D-02

 Cycle  14  Pass 1  IDiag  3:
 E=-0.590297771117889     Delta-E=        0.000336480635 Rises=F Damp=F
 DIIS: error= 3.39D-04 at cycle  14 NSaved=  14.
 NSaved=14 IEnMin=10 EnMin=-0.591100006496049     IErMin= 8 ErrMin= 3.30D-04
 ErrMax= 3.39D-04  0.00D+00 EMaxC= 1.00D+00 BMatC= 5.65D-06 BMatP= 6.49D-06
 IDIUse=1 WtCom= 1.00D+00 WtEn= 0.00D+00
 Coeff-Com:  0.243D-02-0.299D-01 0.786D-01 0.865D-02-0.153D+00 0.181D+00
 Coeff-Com:  0.187D+00-0.805D+00 0.129D+01 0.147D+00-0.706D+00-0.207D+00
 Coeff-Com: -0.132D+01 0.233D+01
 Coeff:      0.243D-02-0.299D-01 0.786D-01 0.865D-02-0.153D+00 0.181D+00
 Coeff:      0.187D+00-0.805D+00 0.129D+01 0.147D+00-0.706D+00-0.207D+00
 Coeff:     -0.132D+01 0.233D+01
 Gap=     0.169 Goal=   None    Shift=    0.000
 RMSDP=1.46D-03 MaxDP=1.99D-02 DE= 3.36D-04 OVMax= 4.37D-02

 Cycle  15  Pass 1  IDiag  3:
 E=-0.590015197618413     Delta-E=        0.000282573499 Rises=F Damp=F
 DIIS: error= 3.44D-04 at cycle  15 NSaved=  15.
 NSaved=15 IEnMin=10 EnMin=-0.591100006496049     IErMin= 8 ErrMin= 3.30D-04
 ErrMax= 3.44D-04  0.00D+00 EMaxC= 1.00D+00 BMatC= 4.78D-06 BMatP= 5.65D-06
 IDIUse=1 WtCom= 1.00D+00 WtEn= 0.00D+00
 Coeff-Com:  0.218D-02-0.285D-01 0.733D-01 0.257D-01-0.175D+00 0.218D+00
 Coeff-Com:  0.100D+00-0.757D+00 0.953D+00 0.178D-01 0.511D+00-0.102D+01
 Coeff-Com: -0.881D-01-0.586D+00 0.176D+01
 Coeff:      0.218D-02-0.285D-01 0.733D-01 0.257D-01-0.175D+00 0.218D+00
 Coeff:      0.100D+00-0.757D+00 0.953D+00 0.178D-01 0.511D+00-0.102D+01
 Coeff:     -0.881D-01-0.586D+00 0.176D+01
 Gap=     0.169 Goal=   None    Shift=    0.000
 RMSDP=1.02D-03 MaxDP=1.36D-02 DE= 2.83D-04 OVMax= 3.10D-02

 Cycle  16  Pass 1  IDiag  3:
 E=-0.589919177946740     Delta-E=        0.000096019672 Rises=F Damp=F
 DIIS: error= 3.42D-04 at cycle  16 NSaved=  16.
 NSaved=16 IEnMin=10 EnMin=-0.591100006496049     IErMin= 8 ErrMin= 3.30D-04
 ErrMax= 3.42D-04  0.00D+00 EMaxC= 1.00D+00 BMatC= 3.86D-06 BMatP= 4.78D-06
 IDIUse=1 WtCom= 1.00D+00 WtEn= 0.00D+00
 Coeff-Com:  0.164D-02-0.146D-01 0.360D-01 0.117D-01-0.864D-01 0.377D-01
 Coeff-Com:  0.256D+00-0.588D+00 0.120D+00 0.524D+00-0.105D+01 0.897D+00
 Coeff-Com: -0.464D+00-0.938D-01-0.490D+00 0.191D+01
 Coeff:      0.164D-02-0.146D-01 0.360D-01 0.117D-01-0.864D-01 0.377D-01
 Coeff:      0.256D+00-0.588D+00 0.120D+00 0.524D+00-0.105D+01 0.897D+00
 Coeff:     -0.464D+00-0.938D-01-0.490D+00 0.191D+01
 Gap=     0.169 Goal=   None    Shift=    0.000
 RMSDP=1.65D-03 MaxDP=2.14D-02 DE= 9.60D-05 OVMax= 4.97D-02

 Cycle  17  Pass 1  IDiag  3:
 E=-0.589835637392241     Delta-E=        0.000083540554 Rises=F Damp=F
 DIIS: error= 3.19D-04 at cycle  17 NSaved=  17.
 NSaved=17 IEnMin=10 EnMin=-0.591100006496049     IErMin=17 ErrMin= 3.19D-04
 ErrMax= 3.19D-04  0.00D+00 EMaxC= 1.00D+00 BMatC= 3.98D-06 BMatP= 3.86D-06
 IDIUse=1 WtCom= 1.00D+00 WtEn= 0.00D+00
 Coeff-Com:  0.218D-02-0.216D-01 0.515D-01 0.238D-01-0.131D+00 0.114D+00
 Coeff-Com:  0.205D+00-0.664D+00 0.203D+00 0.101D+00-0.940D-01 0.400D+00
 Coeff-Com: -0.387D+00-0.155D+00-0.499D+00 0.146D+01 0.392D+00
 Coeff:      0.218D-02-0.216D-01 0.515D-01 0.238D-01-0.131D+00 0.114D+00
 Coeff:      0.205D+00-0.664D+00 0.203D+00 0.101D+00-0.940D-01 0.400D+00
 Coeff:     -0.387D+00-0.155D+00-0.499D+00 0.146D+01 0.392D+00
 Gap=     0.169 Goal=   None    Shift=    0.000
 RMSDP=3.17D-04 MaxDP=2.79D-03 DE= 8.35D-05 OVMax= 7.31D-03

 Cycle  18  Pass 1  IDiag  3:
 E=-0.589863239172814     Delta-E=       -0.000027601781 Rises=F Damp=F
 DIIS: error= 3.18D-04 at cycle  18 NSaved=  18.
 NSaved=18 IEnMin=10 EnMin=-0.591100006496049     IErMin=18 ErrMin= 3.18D-04
 ErrMax= 3.18D-04  0.00D+00 EMaxC= 1.00D+00 BMatC= 3.02D-06 BMatP= 3.86D-06
 IDIUse=1 WtCom= 1.00D+00 WtEn= 0.00D+00
 Coeff-Com:  0.236D-02-0.215D-01 0.511D-01 0.609D-02-0.956D-01 0.131D+00
 Coeff-Com: -0.131D-01-0.174D+00-0.431D+00-0.187D-01 0.132D+01-0.114D+01
 Coeff-Com:  0.360D+00-0.201D+00-0.189D-02-0.162D+00-0.453D+00 0.184D+01
 Coeff:      0.236D-02-0.215D-01 0.511D-01 0.609D-02-0.956D-01 0.131D+00
 Coeff:     -0.131D-01-0.174D+00-0.431D+00-0.187D-01 0.132D+01-0.114D+01
 Coeff:      0.360D+00-0.201D+00-0.189D-02-0.162D+00-0.453D+00 0.184D+01
 Gap=     0.169 Goal=   None    Shift=    0.000
 RMSDP=1.57D-03 MaxDP=1.85D-02 DE=-2.76D-05 OVMax= 4.60D-02

 Cycle  19  Pass 1  IDiag  3:
 E=-0.589878824543575     Delta-E=       -0.000015585371 Rises=F Damp=F
 DIIS: error= 2.72D-04 at cycle  19 NSaved=  19.
 NSaved=19 IEnMin=10 EnMin=-0.591100006496049     IErMin=19 ErrMin= 2.72D-04
 ErrMax= 2.72D-04  0.00D+00 EMaxC= 1.00D+00 BMatC= 3.95D-06 BMatP= 3.02D-06
 IDIUse=1 WtCom= 1.00D+00 WtEn= 0.00D+00
 Coeff-Com:  0.254D-02-0.221D-01 0.520D-01 0.517D-02-0.950D-01 0.125D+00
 Coeff-Com:  0.293D-02-0.191D+00-0.436D+00-0.368D-01 0.137D+01-0.116D+01
 Coeff-Com:  0.362D+00-0.220D+00-0.809D-02-0.444D-01-0.533D+00 0.173D+01
 Coeff-Com:  0.103D+00
 Coeff:      0.254D-02-0.221D-01 0.520D-01 0.517D-02-0.950D-01 0.125D+00
 Coeff:      0.293D-02-0.191D+00-0.436D+00-0.368D-01 0.137D+01-0.116D+01
 Coeff:      0.362D+00-0.220D+00-0.809D-02-0.444D-01-0.533D+00 0.173D+01
 Coeff:      0.103D+00
 Gap=     0.169 Goal=   None    Shift=    0.000
 RMSDP=6.65D-05 MaxDP=7.74D-04 DE=-1.56D-05 OVMax= 1.13D-03

 Cycle  20  Pass 1  IDiag  3:
 E=-0.589877525045495     Delta-E=        0.000001299498 Rises=F Damp=F
 DIIS: error= 2.96D-04 at cycle  20 NSaved=  20.
 NSaved=20 IEnMin=10 EnMin=-0.591100006496049     IErMin=19 ErrMin= 2.72D-04
 ErrMax= 2.96D-04  0.00D+00 EMaxC= 1.00D+00 BMatC= 3.56D-06 BMatP= 3.02D-06
 IDIUse=1 WtCom= 1.00D+00 WtEn= 0.00D+00
 Coeff-Com:  0.240D-02-0.193D-01 0.452D-01 0.737D-03-0.764D-01 0.911D-01
 Coeff-Com:  0.467D-01-0.211D+00-0.465D+00-0.724D-02 0.137D+01-0.120D+01
 Coeff-Com:  0.419D+00-0.233D+00 0.866D-01-0.287D+00-0.574D+00 0.210D+01
 Coeff-Com:  0.216D+00-0.298D+00
 Coeff:      0.240D-02-0.193D-01 0.452D-01 0.737D-03-0.764D-01 0.911D-01
 Coeff:      0.467D-01-0.211D+00-0.465D+00-0.724D-02 0.137D+01-0.120D+01
 Coeff:      0.419D+00-0.233D+00 0.866D-01-0.287D+00-0.574D+00 0.210D+01
 Coeff:      0.216D+00-0.298D+00
 Gap=     0.169 Goal=   None    Shift=    0.000
 RMSDP=9.88D-05 MaxDP=1.05D-03 DE= 1.30D-06 OVMax= 2.86D-03

 Cycle  21  Pass 1  IDiag  3:
 E=-0.589874665977732     Delta-E=        0.000002859068 Rises=F Damp=F
 DIIS: error= 2.98D-04 at cycle  21 NSaved=  20.
 NSaved=20 IEnMin= 9 EnMin=-0.591100006496049     IErMin=18 ErrMin= 2.72D-04
 ErrMax= 2.98D-04  0.00D+00 EMaxC= 1.00D+00 BMatC= 3.72D-06 BMatP= 3.02D-06
 IDIUse=1 WtCom= 1.00D+00 WtEn= 0.00D+00
 Large coefficients: NSaved= 20 BigCof=   11.21 CofMax=   10.00 Det=-1.54D-09
 Inversion failed.  Reducing to 19 matrices.
 Large coefficients: NSaved= 19 BigCof=   11.37 CofMax=   10.00 Det=-1.55D-09
 Inversion failed.  Reducing to 18 matrices.
 Coeff-Com: -0.634D-02 0.142D-01-0.707D-01 0.249D+00-0.617D+00 0.346D-01
 Coeff-Com: -0.119D+01 0.355D+01-0.246D+01 0.674D+00-0.219D+00 0.135D+00
 Coeff-Com: -0.805D+00-0.108D+00 0.170D+01-0.301D-01 0.844D+01-0.828D+01
 Coeff:     -0.634D-02 0.142D-01-0.707D-01 0.249D+00-0.617D+00 0.346D-01
 Coeff:     -0.119D+01 0.355D+01-0.246D+01 0.674D+00-0.219D+00 0.135D+00
 Coeff:     -0.805D+00-0.108D+00 0.170D+01-0.301D-01 0.844D+01-0.828D+01
 Gap=     0.168 Goal=   None    Shift=    0.000
 RMSDP=9.05D-04 MaxDP=8.61D-03 DE= 2.86D-06 OVMax= 2.20D-02

 Cycle  22  Pass 1  IDiag  3:
 E=-0.589952344143967     Delta-E=       -0.000077678166 Rises=F Damp=F
 DIIS: error= 2.45D-04 at cycle  22 NSaved=  19.
 NSaved=19 IEnMin= 7 EnMin=-0.591100006496049     IErMin=19 ErrMin= 2.45D-04
 ErrMax= 2.45D-04  0.00D+00 EMaxC= 1.00D+00 BMatC= 2.41D-06 BMatP= 3.02D-06
 IDIUse=1 WtCom= 1.00D+00 WtEn= 0.00D+00
 Coeff-Com:  0.435D-01-0.840D-01-0.683D-01 0.688D+00-0.115D+01-0.181D+00
 Coeff-Com: -0.103D+01 0.340D+01-0.172D+01-0.390D-01 0.330D-01-0.578D-01
 Coeff-Com:  0.701D+00 0.106D-02-0.151D+01-0.385D+00-0.261D+01 0.271D+01
 Coeff-Com:  0.225D+01
 Coeff:      0.435D-01-0.840D-01-0.683D-01 0.688D+00-0.115D+01-0.181D+00
 Coeff:     -0.103D+01 0.340D+01-0.172D+01-0.390D-01 0.330D-01-0.578D-01
 Coeff:      0.701D+00 0.106D-02-0.151D+01-0.385D+00-0.261D+01 0.271D+01
 Coeff:      0.225D+01
 Gap=     0.167 Goal=   None    Shift=    0.000
 RMSDP=1.65D-03 MaxDP=1.42D-02 DE=-7.77D-05 OVMax= 3.88D-02

 Cycle  23  Pass 1  IDiag  3:
 E=-0.590087070882134     Delta-E=       -0.000134726738 Rises=F Damp=F
 DIIS: error= 2.04D-04 at cycle  23 NSaved=  20.
 NSaved=20 IEnMin= 7 EnMin=-0.591100006496049     IErMin=20 ErrMin= 2.04D-04
 ErrMax= 2.04D-04  0.00D+00 EMaxC= 1.00D+00 BMatC= 2.20D-06 BMatP= 2.41D-06
 IDIUse=1 WtCom= 1.00D+00 WtEn= 0.00D+00
 Coeff-Com:  0.167D-01-0.317D-01-0.645D-01 0.510D+00-0.101D+01-0.277D-01
 Coeff-Com: -0.157D+01 0.445D+01-0.266D+01 0.495D+00-0.218D+00-0.109D+00
 Coeff-Com:  0.471D+00 0.114D+00-0.686D+00-0.650D+00-0.148D+01 0.232D+01
 Coeff-Com: -0.103D+00 0.123D+01
 Coeff:      0.167D-01-0.317D-01-0.645D-01 0.510D+00-0.101D+01-0.277D-01
 Coeff:     -0.157D+01 0.445D+01-0.266D+01 0.495D+00-0.218D+00-0.109D+00
 Coeff:      0.471D+00 0.114D+00-0.686D+00-0.650D+00-0.148D+01 0.232D+01
 Coeff:     -0.103D+00 0.123D+01
 Gap=     0.167 Goal=   None    Shift=    0.000
 RMSDP=6.79D-04 MaxDP=5.68D-03 DE=-1.35D-04 OVMax= 1.44D-02

 Cycle  24  Pass 1  IDiag  3:
 E=-0.590149806772956     Delta-E=       -0.000062735891 Rises=F Damp=F
 DIIS: error= 1.70D-04 at cycle  24 NSaved=  20.
 NSaved=20 IEnMin= 6 EnMin=-0.591100006496049     IErMin=20 ErrMin= 1.70D-04
 ErrMax= 1.70D-04  0.00D+00 EMaxC= 1.00D+00 BMatC= 1.32D-06 BMatP= 2.20D-06
 IDIUse=1 WtCom= 1.00D+00 WtEn= 0.00D+00
 Coeff-Com: -0.804D-03-0.169D-01 0.111D+00-0.210D+00 0.117D+00-0.166D+00
 Coeff-Com:  0.455D+00 0.382D-01-0.252D+00-0.184D+00 0.196D+00 0.483D-01
 Coeff-Com:  0.199D+00-0.101D+01 0.240D+00 0.148D+01-0.118D+01-0.800D+00
 Coeff-Com: -0.884D+00 0.282D+01
 Coeff:     -0.804D-03-0.169D-01 0.111D+00-0.210D+00 0.117D+00-0.166D+00
 Coeff:      0.455D+00 0.382D-01-0.252D+00-0.184D+00 0.196D+00 0.483D-01
 Coeff:      0.199D+00-0.101D+01 0.240D+00 0.148D+01-0.118D+01-0.800D+00
 Coeff:     -0.884D+00 0.282D+01
 Gap=     0.167 Goal=   None    Shift=    0.000
 RMSDP=3.60D-03 MaxDP=3.04D-02 DE=-6.27D-05 OVMax= 7.86D-02

 Cycle  25  Pass 1  IDiag  3:
 E=-0.590243768006985     Delta-E=       -0.000093961234 Rises=F Damp=F
 DIIS: error= 3.34D-04 at cycle  25 NSaved=  20.
 NSaved=20 IEnMin= 5 EnMin=-0.591100006496049     IErMin=19 ErrMin= 1.70D-04
 ErrMax= 3.34D-04  0.00D+00 EMaxC= 1.00D+00 BMatC= 6.21D-06 BMatP= 1.32D-06
 IDIUse=1 WtCom= 1.00D+00 WtEn= 0.00D+00
 Coeff-Com: -0.159D-01 0.103D+00-0.208D+00 0.162D+00-0.190D+00 0.515D+00
 Coeff-Com: -0.379D-01-0.254D+00-0.169D+00 0.191D+00 0.449D-01 0.206D+00
 Coeff-Com: -0.105D+01 0.246D+00 0.154D+01-0.122D+01-0.806D+00-0.867D+00
 Coeff-Com:  0.282D+01-0.835D-02
 Coeff:     -0.159D-01 0.103D+00-0.208D+00 0.162D+00-0.190D+00 0.515D+00
 Coeff:     -0.379D-01-0.254D+00-0.169D+00 0.191D+00 0.449D-01 0.206D+00
 Coeff:     -0.105D+01 0.246D+00 0.154D+01-0.122D+01-0.806D+00-0.867D+00
 Coeff:      0.282D+01-0.835D-02
 Gap=     0.170 Goal=   None    Shift=    0.000
 RMSDP=2.25D-04 MaxDP=2.92D-03 DE=-9.40D-05 OVMax= 5.40D-03

 Cycle  26  Pass 1  IDiag  3:
 E=-0.590263836963743     Delta-E=       -0.000020068957 Rises=F Damp=F
 DIIS: error= 1.75D-04 at cycle  26 NSaved=  20.
 NSaved=20 IEnMin= 5 EnMin=-0.591100006496049     IErMin=18 ErrMin= 1.70D-04
 ErrMax= 1.75D-04  0.00D+00 EMaxC= 1.00D+00 BMatC= 2.07D-06 BMatP= 1.32D-06
 IDIUse=1 WtCom= 1.00D+00 WtEn= 0.00D+00
 Coeff-Com: -0.276D-01 0.153D+00-0.291D+00 0.179D+00-0.256D+00 0.642D+00
 Coeff-Com: -0.209D+00-0.161D+00-0.175D+00 0.200D+00-0.345D-01-0.361D+00
 Coeff-Com:  0.317D+00 0.101D+01-0.883D+00-0.964D+00-0.516D+00 0.221D+01
 Coeff-Com: -0.145D+00 0.315D+00
 Coeff:     -0.276D-01 0.153D+00-0.291D+00 0.179D+00-0.256D+00 0.642D+00
 Coeff:     -0.209D+00-0.161D+00-0.175D+00 0.200D+00-0.345D-01-0.361D+00
 Coeff:      0.317D+00 0.101D+01-0.883D+00-0.964D+00-0.516D+00 0.221D+01
 Coeff:     -0.145D+00 0.315D+00
 Gap=     0.169 Goal=   None    Shift=    0.000
 RMSDP=2.07D-04 MaxDP=1.93D-03 DE=-2.01D-05 OVMax= 5.90D-03

 Cycle  27  Pass 1  IDiag  3:
 E=-0.590266151879291     Delta-E=       -0.000002314916 Rises=F Damp=F
 DIIS: error= 1.42D-04 at cycle  27 NSaved=  20.
 NSaved=20 IEnMin= 5 EnMin=-0.591100006496049     IErMin=20 ErrMin= 1.42D-04
 ErrMax= 1.42D-04  0.00D+00 EMaxC= 1.00D+00 BMatC= 1.34D-06 BMatP= 1.32D-06
 IDIUse=1 WtCom= 1.00D+00 WtEn= 0.00D+00
 Coeff-Com:  0.161D-01-0.695D-01 0.223D+00 0.200D+00-0.132D+00-0.363D+00
 Coeff-Com:  0.189D+00-0.122D+00-0.801D-01 0.924D-01 0.218D-01 0.161D+00
 Coeff-Com: -0.165D+00-0.704D+00 0.126D+00-0.434D+00 0.137D+01-0.160D-01
 Coeff-Com: -0.147D+01 0.216D+01
 Coeff:      0.161D-01-0.695D-01 0.223D+00 0.200D+00-0.132D+00-0.363D+00
 Coeff:      0.189D+00-0.122D+00-0.801D-01 0.924D-01 0.218D-01 0.161D+00
 Coeff:     -0.165D+00-0.704D+00 0.126D+00-0.434D+00 0.137D+01-0.160D-01
 Coeff:     -0.147D+01 0.216D+01
 Gap=     0.171 Goal=   None    Shift=    0.000
 RMSDP=1.16D-03 MaxDP=1.53D-02 DE=-2.31D-06 OVMax= 3.36D-02

 Cycle  28  Pass 1  IDiag  3:
 E=-0.590210221838674     Delta-E=        0.000055930041 Rises=F Damp=F
 DIIS: error= 2.92D-04 at cycle  28 NSaved=  20.
 NSaved=20 IEnMin= 5 EnMin=-0.591100006496049     IErMin=19 ErrMin= 1.42D-04
 ErrMax= 2.92D-04  0.00D+00 EMaxC= 1.00D+00 BMatC= 5.16D-06 BMatP= 1.32D-06
 IDIUse=1 WtCom= 1.00D+00 WtEn= 0.00D+00
 Coeff-Com:  0.265D-01-0.127D+00 0.344D+00 0.133D+00-0.263D+00-0.118D+00
 Coeff-Com:  0.381D-01 0.127D-01-0.142D+00 0.104D+00-0.599D-01 0.279D+00
 Coeff-Com: -0.941D+00 0.424D+00-0.337D+00 0.579D+00 0.176D+00-0.266D+01
 Coeff-Com:  0.405D+01-0.521D+00
 Coeff:      0.265D-01-0.127D+00 0.344D+00 0.133D+00-0.263D+00-0.118D+00
 Coeff:      0.381D-01 0.127D-01-0.142D+00 0.104D+00-0.599D-01 0.279D+00
 Coeff:     -0.941D+00 0.424D+00-0.337D+00 0.579D+00 0.176D+00-0.266D+01
 Coeff:      0.405D+01-0.521D+00
 Gap=     0.170 Goal=   None    Shift=    0.000
 RMSDP=4.24D-04 MaxDP=5.42D-03 DE= 5.59D-05 OVMax= 1.24D-02

 Cycle  29  Pass 1  IDiag  3:
 E=-0.590237080619204     Delta-E=       -0.000026858781 Rises=F Damp=F
 DIIS: error= 2.59D-04 at cycle  29 NSaved=  20.
 NSaved=20 IEnMin= 5 EnMin=-0.591100006496049     IErMin=18 ErrMin= 1.42D-04
 ErrMax= 2.59D-04  0.00D+00 EMaxC= 1.00D+00 BMatC= 3.45D-06 BMatP= 1.32D-06
 IDIUse=1 WtCom= 1.00D+00 WtEn= 0.00D+00
 Coeff-Com:  0.400D-01-0.142D+00 0.252D+00 0.483D-01-0.399D+00 0.465D+00
 Coeff-Com: -0.263D+00 0.914D-01-0.215D+00 0.157D-01 0.724D-01 0.421D-01
 Coeff-Com: -0.687D+00 0.434D-01 0.873D+00 0.919D-01-0.137D+01 0.233D+01
 Coeff-Com: -0.582D+00 0.296D+00
 Coeff:      0.400D-01-0.142D+00 0.252D+00 0.483D-01-0.399D+00 0.465D+00
 Coeff:     -0.263D+00 0.914D-01-0.215D+00 0.157D-01 0.724D-01 0.421D-01
 Coeff:     -0.687D+00 0.434D-01 0.873D+00 0.919D-01-0.137D+01 0.233D+01
 Coeff:     -0.582D+00 0.296D+00
 Gap=     0.169 Goal=   None    Shift=    0.000
 RMSDP=4.50D-04 MaxDP=5.33D-03 DE=-2.69D-05 OVMax= 1.23D-02

 Cycle  30  Pass 1  IDiag  3:
 E=-0.590255081240684     Delta-E=       -0.000018000621 Rises=F Damp=F
 DIIS: error= 1.98D-04 at cycle  30 NSaved=  20.
 NSaved=20 IEnMin= 5 EnMin=-0.591100006496049     IErMin=17 ErrMin= 1.42D-04
 ErrMax= 1.98D-04  0.00D+00 EMaxC= 1.00D+00 BMatC= 2.25D-06 BMatP= 1.32D-06
 IDIUse=1 WtCom= 1.00D+00 WtEn= 0.00D+00
 Coeff-Com:  0.376D-01-0.133D+00 0.243D+00 0.531D-01-0.401D+00 0.460D+00
 Coeff-Com: -0.267D+00 0.903D-01-0.205D+00 0.808D-02 0.882D-01-0.633D+00
 Coeff-Com:  0.470D-01 0.838D+00 0.953D-01-0.136D+01 0.227D+01-0.548D+00
 Coeff-Com:  0.194D+00 0.119D+00
 Coeff:      0.376D-01-0.133D+00 0.243D+00 0.531D-01-0.401D+00 0.460D+00
 Coeff:     -0.267D+00 0.903D-01-0.205D+00 0.808D-02 0.882D-01-0.633D+00
 Coeff:      0.470D-01 0.838D+00 0.953D-01-0.136D+01 0.227D+01-0.548D+00
 Coeff:      0.194D+00 0.119D+00
 Gap=     0.169 Goal=   None    Shift=    0.000
 RMSDP=3.12D-05 MaxDP=3.73D-04 DE=-1.80D-05 OVMax= 7.06D-04

 Cycle  31  Pass 1  IDiag  3:
 E=-0.590254853279475     Delta-E=        0.000000227961 Rises=F Damp=F
 DIIS: error= 1.89D-04 at cycle  31 NSaved=  20.
 NSaved=20 IEnMin= 5 EnMin=-0.591100006496049     IErMin=16 ErrMin= 1.42D-04
 ErrMax= 1.89D-04  0.00D+00 EMaxC= 1.00D+00 BMatC= 2.25D-06 BMatP= 1.32D-06
 IDIUse=1 WtCom= 1.00D+00 WtEn= 0.00D+00
 Coeff-Com:  0.290D-01-0.819D-01 0.124D+00 0.711D-01-0.406D+00 0.668D+00
 Coeff-Com: -0.440D+00 0.855D-01-0.159D+00 0.769D-01-0.643D+00 0.613D-01
 Coeff-Com:  0.867D+00 0.384D-01-0.840D+00 0.145D+01-0.707D+00 0.153D+00
 Coeff-Com: -0.756D+00 0.141D+01
 Coeff:      0.290D-01-0.819D-01 0.124D+00 0.711D-01-0.406D+00 0.668D+00
 Coeff:     -0.440D+00 0.855D-01-0.159D+00 0.769D-01-0.643D+00 0.613D-01
 Coeff:      0.867D+00 0.384D-01-0.840D+00 0.145D+01-0.707D+00 0.153D+00
 Coeff:     -0.756D+00 0.141D+01
 Gap=     0.169 Goal=   None    Shift=    0.000
 RMSDP=9.50D-05 MaxDP=1.28D-03 DE= 2.28D-07 OVMax= 2.59D-03

 Cycle  32  Pass 1  IDiag  3:
 E=-0.590260958164663     Delta-E=       -0.000006104885 Rises=F Damp=F
 DIIS: error= 1.69D-04 at cycle  32 NSaved=  20.
 NSaved=20 IEnMin= 5 EnMin=-0.591100006496049     IErMin=15 ErrMin= 1.42D-04
 ErrMax= 1.69D-04  0.00D+00 EMaxC= 1.00D+00 BMatC= 1.91D-06 BMatP= 1.32D-06
 IDIUse=1 WtCom= 1.00D+00 WtEn= 0.00D+00
 Coeff-Com:  0.262D-01-0.113D+00 0.313D+00-0.162D+00-0.359D+00 0.271D+00
 Coeff-Com:  0.673D-02 0.112D+00-0.149D+00 0.637D-02-0.161D+00 0.190D+00
 Coeff-Com:  0.169D+00-0.229D+01 0.300D+01 0.162D+00-0.648D+00 0.833D+00
 Coeff-Com: -0.900D+01 0.879D+01
 Coeff:      0.262D-01-0.113D+00 0.313D+00-0.162D+00-0.359D+00 0.271D+00
 Coeff:      0.673D-02 0.112D+00-0.149D+00 0.637D-02-0.161D+00 0.190D+00
 Coeff:      0.169D+00-0.229D+01 0.300D+01 0.162D+00-0.648D+00 0.833D+00
 Coeff:     -0.900D+01 0.879D+01
 Gap=     0.168 Goal=   None    Shift=    0.000
 RMSDP=7.45D-04 MaxDP=9.49D-03 DE=-6.10D-06 OVMax= 2.21D-02

 Cycle  33  Pass 1  IDiag  3:
 E=-0.590285152844899     Delta-E=       -0.000024194680 Rises=F Damp=F
 DIIS: error= 1.62D-04 at cycle  33 NSaved=  20.
 NSaved=20 IEnMin= 4 EnMin=-0.591100006496049     IErMin=14 ErrMin= 1.42D-04
 ErrMax= 1.62D-04  0.00D+00 EMaxC= 1.00D+00 BMatC= 1.17D-06 BMatP= 1.32D-06
 IDIUse=1 WtCom= 1.00D+00 WtEn= 0.00D+00
 Coeff-Com: -0.775D-02 0.116D+00-0.661D-01-0.363D+00 0.520D+00-0.217D+00
 Coeff-Com: -0.394D-01 0.515D-01-0.142D-01 0.783D-01-0.208D+00 0.133D+00
 Coeff-Com: -0.103D+01 0.186D+01 0.159D+00-0.633D+00 0.264D+00-0.355D+01
 Coeff-Com:  0.284D+01 0.111D+01
 Coeff:     -0.775D-02 0.116D+00-0.661D-01-0.363D+00 0.520D+00-0.217D+00
 Coeff:     -0.394D-01 0.515D-01-0.142D-01 0.783D-01-0.208D+00 0.133D+00
 Coeff:     -0.103D+01 0.186D+01 0.159D+00-0.633D+00 0.264D+00-0.355D+01
 Coeff:      0.284D+01 0.111D+01
 Gap=     0.167 Goal=   None    Shift=    0.000
 RMSDP=1.82D-04 MaxDP=2.44D-03 DE=-2.42D-05 OVMax= 5.18D-03

 Cycle  34  Pass 1  IDiag  3:
 E=-0.590293055876145     Delta-E=       -0.000007903031 Rises=F Damp=F
 DIIS: error= 1.38D-04 at cycle  34 NSaved=  20.
 NSaved=20 IEnMin= 4 EnMin=-0.591100006496049     IErMin=20 ErrMin= 1.38D-04
 ErrMax= 1.38D-04  0.00D+00 EMaxC= 1.00D+00 BMatC= 8.33D-07 BMatP= 1.17D-06
 IDIUse=1 WtCom= 1.00D+00 WtEn= 0.00D+00
 Coeff-Com:  0.222D-01-0.573D-01 0.150D+00-0.164D+00-0.788D-02 0.191D-01
 Coeff-Com:  0.142D+00-0.125D+00-0.266D-01-0.870D-01 0.290D-01 0.534D+00
 Coeff-Com:  0.107D+00-0.313D+00 0.409D+00-0.312D+00 0.119D+01-0.225D+01
 Coeff-Com: -0.776D+00 0.251D+01
 Coeff:      0.222D-01-0.573D-01 0.150D+00-0.164D+00-0.788D-02 0.191D-01
 Coeff:      0.142D+00-0.125D+00-0.266D-01-0.870D-01 0.290D-01 0.534D+00
 Coeff:      0.107D+00-0.313D+00 0.409D+00-0.312D+00 0.119D+01-0.225D+01
 Coeff:     -0.776D+00 0.251D+01
 Gap=     0.167 Goal=   None    Shift=    0.000
 RMSDP=5.56D-04 MaxDP=6.42D-03 DE=-7.90D-06 OVMax= 1.28D-02

 Cycle  35  Pass 1  IDiag  1:
 E=-0.590309243221668     Delta-E=       -0.000016187346 Rises=F Damp=F
 DIIS: error= 6.53D-05 at cycle  35 NSaved=  20.
 NSaved=20 IEnMin= 4 EnMin=-0.591100006496049     IErMin=20 ErrMin= 6.53D-05
 ErrMax= 6.53D-05  0.00D+00 EMaxC= 1.00D+00 BMatC= 2.21D-07 BMatP= 8.33D-07
 IDIUse=1 WtCom= 1.00D+00 WtEn= 0.00D+00
 Coeff-Com:  0.157D-01-0.357D-01 0.696D-01-0.210D+00 0.199D+00-0.863D-01
 Coeff-Com:  0.827D-01-0.448D-01-0.584D-01 0.184D-01 0.148D+00 0.334D+00
 Coeff-Com: -0.255D+00 0.225D+00-0.320D+00 0.120D+01-0.170D+01-0.504D+00
 Coeff-Com:  0.126D+01 0.654D+00
 Coeff:      0.157D-01-0.357D-01 0.696D-01-0.210D+00 0.199D+00-0.863D-01
 Coeff:      0.827D-01-0.448D-01-0.584D-01 0.184D-01 0.148D+00 0.334D+00
 Coeff:     -0.255D+00 0.225D+00-0.320D+00 0.120D+01-0.170D+01-0.504D+00
 Coeff:      0.126D+01 0.654D+00
 RMSDP=1.88D-04 MaxDP=2.32D-03 DE=-1.62D-05 OVMax= 1.28D-02

 Cycle  36  Pass 1  IDiag  3:
 E=-0.590312266418664     Delta-E=       -0.000003023197 Rises=F Damp=F
 DIIS: error= 5.98D-05 at cycle  36 NSaved=  20.
 NSaved=20 IEnMin= 4 EnMin=-0.591100006496049     IErMin=20 ErrMin= 5.98D-05
 ErrMax= 5.98D-05  0.00D+00 EMaxC= 1.00D+00 BMatC= 1.42D-07 BMatP= 2.21D-07
 IDIUse=1 WtCom= 1.00D+00 WtEn= 0.00D+00
 Coeff-Com: -0.493D-02 0.261D-01 0.598D-01-0.109D+00 0.121D+00-0.126D+00
 Coeff-Com:  0.199D-01 0.958D-02 0.288D-01-0.627D+00 0.783D+00 0.179D-01
 Coeff-Com: -0.107D+00 0.724D-01-0.130D+01 0.133D+01 0.304D+00-0.111D+01
 Coeff-Com: -0.363D+00 0.198D+01
 Coeff:     -0.493D-02 0.261D-01 0.598D-01-0.109D+00 0.121D+00-0.126D+00
 Coeff:      0.199D-01 0.958D-02 0.288D-01-0.627D+00 0.783D+00 0.179D-01
 Coeff:     -0.107D+00 0.724D-01-0.130D+01 0.133D+01 0.304D+00-0.111D+01
 Coeff:     -0.363D+00 0.198D+01
 Gap=     0.163 Goal=   None    Shift=    0.000
 RMSDP=3.49D-04 MaxDP=4.55D-03 DE=-3.02D-06 OVMax= 8.86D-03

 Cycle  37  Pass 1  IDiag  3:
 E=-0.590316624571415     Delta-E=       -0.000004358153 Rises=F Damp=F
 DIIS: error= 5.74D-05 at cycle  37 NSaved=  20.
 NSaved=20 IEnMin= 4 EnMin=-0.591100006496049     IErMin=20 ErrMin= 5.74D-05
 ErrMax= 5.74D-05  0.00D+00 EMaxC= 1.00D+00 BMatC= 1.12D-07 BMatP= 1.42D-07
 IDIUse=1 WtCom= 1.00D+00 WtEn= 0.00D+00
 Coeff-Com: -0.661D-02 0.308D-01 0.310D-01-0.960D-01 0.801D-01-0.675D-01
 Coeff-Com:  0.261D-01-0.484D-02 0.213D-01-0.348D+00 0.510D+00-0.113D+00
 Coeff-Com:  0.118D+00-0.105D+01 0.101D+01 0.112D+00-0.598D+00-0.328D+00
 Coeff-Com:  0.104D+01 0.632D+00
 Coeff:     -0.661D-02 0.308D-01 0.310D-01-0.960D-01 0.801D-01-0.675D-01
 Coeff:      0.261D-01-0.484D-02 0.213D-01-0.348D+00 0.510D+00-0.113D+00
 Coeff:      0.118D+00-0.105D+01 0.101D+01 0.112D+00-0.598D+00-0.328D+00
 Coeff:      0.104D+01 0.632D+00
 Gap=     0.163 Goal=   None    Shift=    0.000
 RMSDP=7.31D-05 MaxDP=9.60D-04 DE=-4.36D-06 OVMax= 1.95D-03

 Cycle  38  Pass 1  IDiag  3:
 E=-0.590317465566955     Delta-E=       -0.000000840996 Rises=F Damp=F
 DIIS: error= 5.36D-05 at cycle  38 NSaved=  20.
 NSaved=20 IEnMin= 4 EnMin=-0.591100006496049     IErMin=20 ErrMin= 5.36D-05
 ErrMax= 5.36D-05  0.00D+00 EMaxC= 1.00D+00 BMatC= 9.68D-08 BMatP= 1.12D-07
 IDIUse=1 WtCom= 1.00D+00 WtEn= 0.00D+00
 Coeff-Com: -0.194D-01 0.692D-01-0.617D-02-0.738D-02-0.742D-01 0.281D-01
 Coeff-Com:  0.627D-02-0.480D-02 0.123D-01 0.318D-01 0.237D+00 0.614D-01
 Coeff-Com: -0.557D+00 0.136D+00-0.417D-01 0.238D+00 0.101D+00-0.708D+00
 Coeff-Com: -0.242D+00 0.174D+01
 Coeff:     -0.194D-01 0.692D-01-0.617D-02-0.738D-02-0.742D-01 0.281D-01
 Coeff:      0.627D-02-0.480D-02 0.123D-01 0.318D-01 0.237D+00 0.614D-01
 Coeff:     -0.557D+00 0.136D+00-0.417D-01 0.238D+00 0.101D+00-0.708D+00
 Coeff:     -0.242D+00 0.174D+01
 Gap=     0.163 Goal=   None    Shift=    0.000
 RMSDP=2.14D-04 MaxDP=2.72D-03 DE=-8.41D-07 OVMax= 5.98D-03

 Cycle  39  Pass 1  IDiag  3:
 E=-0.590319450433071     Delta-E=       -0.000001984866 Rises=F Damp=F
 DIIS: error= 4.74D-05 at cycle  39 NSaved=  20.
 NSaved=20 IEnMin= 4 EnMin=-0.591100006496049     IErMin=20 ErrMin= 4.74D-05
 ErrMax= 4.74D-05  0.00D+00 EMaxC= 1.00D+00 BMatC= 7.73D-08 BMatP= 9.68D-08
 IDIUse=1 WtCom= 1.00D+00 WtEn= 0.00D+00
 Coeff-Com: -0.137D-01 0.520D-01 0.123D-01-0.696D-02-0.989D-01 0.518D-01
 Coeff-Com: -0.132D-02-0.385D-02 0.589D-01 0.194D+00 0.600D-01-0.576D+00
 Coeff-Com:  0.190D+00-0.830D-01 0.265D+00 0.744D-01-0.558D+00-0.237D+00
 Coeff-Com:  0.132D+01 0.297D+00
 Coeff:     -0.137D-01 0.520D-01 0.123D-01-0.696D-02-0.989D-01 0.518D-01
 Coeff:     -0.132D-02-0.385D-02 0.589D-01 0.194D+00 0.600D-01-0.576D+00
 Coeff:      0.190D+00-0.830D-01 0.265D+00 0.744D-01-0.558D+00-0.237D+00
 Coeff:      0.132D+01 0.297D+00
 Gap=     0.163 Goal=   None    Shift=    0.000
 RMSDP=2.63D-05 MaxDP=3.31D-04 DE=-1.98D-06 OVMax= 6.38D-04

 Cycle  40  Pass 1  IDiag  3:
 E=-0.590319678822766     Delta-E=       -0.000000228390 Rises=F Damp=F
 DIIS: error= 4.59D-05 at cycle  40 NSaved=  20.
 NSaved=20 IEnMin= 4 EnMin=-0.591100006496049     IErMin=20 ErrMin= 4.59D-05
 ErrMax= 4.59D-05  0.00D+00 EMaxC= 1.00D+00 BMatC= 7.55D-08 BMatP= 7.73D-08
 IDIUse=1 WtCom= 1.00D+00 WtEn= 0.00D+00
 Coeff-Com: -0.901D-03 0.997D-02 0.941D-02-0.314D-01 0.267D-01-0.245D-01
 Coeff-Com:  0.222D-02-0.136D-02 0.771D-01 0.146D+00-0.196D-01-0.356D+00
 Coeff-Com:  0.722D-01 0.873D-01-0.124D-01 0.222D-01-0.268D-01-0.389D+00
 Coeff-Com: -0.115D+00 0.152D+01
 Coeff:     -0.901D-03 0.997D-02 0.941D-02-0.314D-01 0.267D-01-0.245D-01
 Coeff:      0.222D-02-0.136D-02 0.771D-01 0.146D+00-0.196D-01-0.356D+00
 Coeff:      0.722D-01 0.873D-01-0.124D-01 0.222D-01-0.268D-01-0.389D+00
 Coeff:     -0.115D+00 0.152D+01
 Gap=     0.163 Goal=   None    Shift=    0.000
 RMSDP=1.60D-04 MaxDP=2.03D-03 DE=-2.28D-07 OVMax= 4.38D-03

 Cycle  41  Pass 1  IDiag  3:
 E=-0.590320992588090     Delta-E=       -0.000001313765 Rises=F Damp=F
 DIIS: error= 4.11D-05 at cycle  41 NSaved=  20.
 NSaved=20 IEnMin= 4 EnMin=-0.591100006496049     IErMin=20 ErrMin= 4.11D-05
 ErrMax= 4.11D-05  0.00D+00 EMaxC= 1.00D+00 BMatC= 6.06D-08 BMatP= 7.55D-08
 IDIUse=1 WtCom= 1.00D+00 WtEn= 0.00D+00
 Coeff-Com: -0.875D-03 0.102D-01 0.953D-02-0.299D-01 0.219D-01-0.209D-01
 Coeff-Com:  0.252D-02-0.265D-02 0.916D-01 0.131D+00-0.380D+00 0.651D-01
 Coeff-Com:  0.108D+00-0.147D-01 0.132D-01-0.241D-01-0.409D+00-0.857D-01
 Coeff-Com:  0.156D+01-0.448D-01
 Coeff:     -0.875D-03 0.102D-01 0.953D-02-0.299D-01 0.219D-01-0.209D-01
 Coeff:      0.252D-02-0.265D-02 0.916D-01 0.131D+00-0.380D+00 0.651D-01
 Coeff:      0.108D+00-0.147D-01 0.132D-01-0.241D-01-0.409D+00-0.857D-01
 Coeff:      0.156D+01-0.448D-01
 Gap=     0.163 Goal=   None    Shift=    0.000
 RMSDP=5.28D-06 MaxDP=4.75D-05 DE=-1.31D-06 OVMax= 1.25D-04

 Cycle  42  Pass 1  IDiag  3:
 E=-0.590320960262147     Delta-E=        0.000000032326 Rises=F Damp=F
 DIIS: error= 4.08D-05 at cycle  42 NSaved=  20.
 NSaved=20 IEnMin= 4 EnMin=-0.591100006496049     IErMin=20 ErrMin= 4.08D-05
 ErrMax= 4.08D-05  0.00D+00 EMaxC= 1.00D+00 BMatC= 6.28D-08 BMatP= 6.06D-08
 IDIUse=1 WtCom= 1.00D+00 WtEn= 0.00D+00
 Coeff-Com:  0.184D-01-0.461D-01 0.393D-01-0.140D+00 0.268D+00-0.168D+00
 Coeff-Com: -0.269D-01 0.632D-01 0.411D-01-0.635D-01 0.276D+00-0.740D+00
 Coeff-Com: -0.179D+00 0.119D+01 0.206D+00-0.174D+01 0.104D+00 0.174D+01
 Coeff-Com: -0.891D-01 0.251D+00
 Coeff:      0.184D-01-0.461D-01 0.393D-01-0.140D+00 0.268D+00-0.168D+00
 Coeff:     -0.269D-01 0.632D-01 0.411D-01-0.635D-01 0.276D+00-0.740D+00
 Coeff:     -0.179D+00 0.119D+01 0.206D+00-0.174D+01 0.104D+00 0.174D+01
 Coeff:     -0.891D-01 0.251D+00
 Gap=     0.163 Goal=   None    Shift=    0.000
 RMSDP=1.63D-04 MaxDP=2.04D-03 DE= 3.23D-08 OVMax= 4.09D-03

 Cycle  43  Pass 1  IDiag  3:
 E=-0.590322054119156     Delta-E=       -0.000001093857 Rises=F Damp=F
 DIIS: error= 4.18D-05 at cycle  43 NSaved=  20.
 NSaved=20 IEnMin= 4 EnMin=-0.591100006496049     IErMin=19 ErrMin= 4.08D-05
 ErrMax= 4.18D-05  0.00D+00 EMaxC= 1.00D+00 BMatC= 6.46D-08 BMatP= 6.06D-08
 IDIUse=1 WtCom= 1.00D+00 WtEn= 0.00D+00
 Coeff-Com:  0.579D-02-0.117D-01 0.307D-01-0.923D-01 0.143D+00-0.105D+00
 Coeff-Com: -0.280D-01 0.580D-01 0.519D-01 0.209D+00-0.661D+00-0.213D+00
 Coeff-Com:  0.128D+01-0.188D-01-0.159D+01 0.488D-01 0.157D+01-0.150D+00
 Coeff-Com: -0.414D+00 0.881D+00
 Coeff:      0.579D-02-0.117D-01 0.307D-01-0.923D-01 0.143D+00-0.105D+00
 Coeff:     -0.280D-01 0.580D-01 0.519D-01 0.209D+00-0.661D+00-0.213D+00
 Coeff:      0.128D+01-0.188D-01-0.159D+01 0.488D-01 0.157D+01-0.150D+00
 Coeff:     -0.414D+00 0.881D+00
 Gap=     0.163 Goal=   None    Shift=    0.000
 RMSDP=4.85D-05 MaxDP=6.51D-04 DE=-1.09D-06 OVMax= 1.24D-03

 Cycle  44  Pass 1  IDiag  3:
 E=-0.590321579632018     Delta-E=        0.000000474487 Rises=F Damp=F
 DIIS: error= 4.88D-05 at cycle  44 NSaved=  20.
 NSaved=20 IEnMin= 4 EnMin=-0.591100006496049     IErMin=18 ErrMin= 4.08D-05
 ErrMax= 4.88D-05  0.00D+00 EMaxC= 1.00D+00 BMatC= 9.34D-08 BMatP= 6.06D-08
 IDIUse=1 WtCom= 1.00D+00 WtEn= 0.00D+00
 Coeff-Com:  0.871D-02-0.222D-01 0.284D-01-0.115D+00 0.184D+00-0.123D+00
 Coeff-Com: -0.224D-01 0.614D-01 0.156D+00-0.473D+00-0.169D+00 0.974D+00
 Coeff-Com: -0.132D+00-0.105D+01-0.393D-01 0.127D+01-0.169D+00 0.562D+00
 Coeff-Com:  0.142D+01-0.135D+01
 Coeff:      0.871D-02-0.222D-01 0.284D-01-0.115D+00 0.184D+00-0.123D+00
 Coeff:     -0.224D-01 0.614D-01 0.156D+00-0.473D+00-0.169D+00 0.974D+00
 Coeff:     -0.132D+00-0.105D+01-0.393D-01 0.127D+01-0.169D+00 0.562D+00
 Coeff:      0.142D+01-0.135D+01
 Gap=     0.163 Goal=   None    Shift=    0.000
 RMSDP=4.33D-05 MaxDP=5.46D-04 DE= 4.74D-07 OVMax= 9.77D-04

 Cycle  45  Pass 1  IDiag  3:
 E=-0.590321155028732     Delta-E=        0.000000424603 Rises=F Damp=F
 DIIS: error= 5.51D-05 at cycle  45 NSaved=  20.
 NSaved=20 IEnMin= 4 EnMin=-0.591100006496049     IErMin=17 ErrMin= 4.08D-05
 ErrMax= 5.51D-05  0.00D+00 EMaxC= 1.00D+00 BMatC= 1.19D-07 BMatP= 6.06D-08
 IDIUse=1 WtCom= 1.00D+00 WtEn= 0.00D+00
 Coeff-Com:  0.421D-02-0.131D-01 0.327D-01-0.119D+00 0.152D+00-0.102D+00
 Coeff-Com: -0.108D-01 0.542D-01-0.978D-01-0.125D+00 0.408D+00-0.311D+00
 Coeff-Com: -0.213D-01-0.838D-01 0.434D+00-0.135D+00 0.106D+01 0.169D+01
 Coeff-Com: -0.103D+00-0.171D+01
 Coeff:      0.421D-02-0.131D-01 0.327D-01-0.119D+00 0.152D+00-0.102D+00
 Coeff:     -0.108D-01 0.542D-01-0.978D-01-0.125D+00 0.408D+00-0.311D+00
 Coeff:     -0.213D-01-0.838D-01 0.434D+00-0.135D+00 0.106D+01 0.169D+01
 Coeff:     -0.103D+00-0.171D+01
 Gap=     0.163 Goal=   None    Shift=    0.000
 RMSDP=2.60D-05 MaxDP=3.49D-04 DE= 4.25D-07 OVMax= 6.42D-04

 Cycle  46  Pass 1  IDiag  3:
 E=-0.590320853030676     Delta-E=        0.000000301998 Rises=F Damp=F
 DIIS: error= 5.96D-05 at cycle  46 NSaved=  20.
 NSaved=20 IEnMin= 4 EnMin=-0.591100006496049     IErMin=16 ErrMin= 4.08D-05
 ErrMax= 5.96D-05  0.00D+00 EMaxC= 1.00D+00 BMatC= 1.44D-07 BMatP= 6.06D-08
 IDIUse=1 WtCom= 1.00D+00 WtEn= 0.00D+00
 Coeff-Com:  0.441D-02-0.121D-01 0.410D-01-0.982D-01 0.757D-01-0.605D-01
 Coeff-Com: -0.109D-02 0.450D-01-0.101D+00 0.194D+00-0.234D+00-0.137D+00
 Coeff-Com: -0.123D+00 0.101D+01-0.138D+00 0.739D+00 0.115D+01 0.781D+00
 Coeff-Com: -0.230D+00-0.191D+01
 Coeff:      0.441D-02-0.121D-01 0.410D-01-0.982D-01 0.757D-01-0.605D-01
 Coeff:     -0.109D-02 0.450D-01-0.101D+00 0.194D+00-0.234D+00-0.137D+00
 Coeff:     -0.123D+00 0.101D+01-0.138D+00 0.739D+00 0.115D+01 0.781D+00
 Coeff:     -0.230D+00-0.191D+01
 Gap=     0.163 Goal=   None    Shift=    0.000
 RMSDP=6.38D-05 MaxDP=8.25D-04 DE= 3.02D-07 OVMax= 1.67D-03

 Cycle  47  Pass 1  IDiag  3:
 E=-0.590320249643810     Delta-E=        0.000000603387 Rises=F Damp=F
 DIIS: error= 6.39D-05 at cycle  47 NSaved=  20.
 NSaved=20 IEnMin= 4 EnMin=-0.591100006496049     IErMin=15 ErrMin= 4.08D-05
 ErrMax= 6.39D-05  0.00D+00 EMaxC= 1.00D+00 BMatC= 1.68D-07 BMatP= 6.06D-08
 IDIUse=1 WtCom= 1.00D+00 WtEn= 0.00D+00
 Coeff-Com:  0.175D-02 0.156D-02 0.413D-01-0.808D-01 0.494D-01-0.819D-01
 Coeff-Com:  0.588D-01-0.102D+00 0.235D+00-0.128D+00-0.441D+00-0.889D-01
 Coeff-Com:  0.139D+01-0.430D+00 0.858D+00 0.595D+00 0.665D+00 0.516D+00
 Coeff-Com: -0.441D+00-0.162D+01
 Coeff:      0.175D-02 0.156D-02 0.413D-01-0.808D-01 0.494D-01-0.819D-01
 Coeff:      0.588D-01-0.102D+00 0.235D+00-0.128D+00-0.441D+00-0.889D-01
 Coeff:      0.139D+01-0.430D+00 0.858D+00 0.595D+00 0.665D+00 0.516D+00
 Coeff:     -0.441D+00-0.162D+01
 Gap=     0.163 Goal=   None    Shift=    0.000
 RMSDP=1.86D-05 MaxDP=1.70D-04 DE= 6.03D-07 OVMax= 5.19D-04

 Cycle  48  Pass 1  IDiag  3:
 E=-0.590320509092294     Delta-E=       -0.000000259448 Rises=F Damp=F
 DIIS: error= 5.88D-05 at cycle  48 NSaved=  20.
 NSaved=20 IEnMin= 4 EnMin=-0.591100006496049     IErMin=14 ErrMin= 4.08D-05
 ErrMax= 5.88D-05  0.00D+00 EMaxC= 1.00D+00 BMatC= 1.38D-07 BMatP= 6.06D-08
 IDIUse=1 WtCom= 1.00D+00 WtEn= 0.00D+00
 Coeff-Com: -0.213D-02 0.228D-01 0.237D-01-0.560D-01-0.215D-01-0.230D-01
 Coeff-Com:  0.423D-01 0.449D-01-0.159D-01-0.436D+00-0.604D-02 0.132D+01
 Coeff-Com: -0.434D+00 0.169D+01-0.413D-01 0.637D+00 0.584D+00 0.152D+01
 Coeff-Com: -0.141D+01-0.244D+01
 Coeff:     -0.213D-02 0.228D-01 0.237D-01-0.560D-01-0.215D-01-0.230D-01
 Coeff:      0.423D-01 0.449D-01-0.159D-01-0.436D+00-0.604D-02 0.132D+01
 Coeff:     -0.434D+00 0.169D+01-0.413D-01 0.637D+00 0.584D+00 0.152D+01
 Coeff:     -0.141D+01-0.244D+01
 Gap=     0.163 Goal=   None    Shift=    0.000
 RMSDP=3.85D-05 MaxDP=4.90D-04 DE=-2.59D-07 OVMax= 8.31D-04

 Cycle  49  Pass 1  IDiag  3:
 E=-0.590320090061027     Delta-E=        0.000000419031 Rises=F Damp=F
 DIIS: error= 6.37D-05 at cycle  49 NSaved=  20.
 NSaved=20 IEnMin= 4 EnMin=-0.591100006496049     IErMin=13 ErrMin= 4.08D-05
 ErrMax= 6.37D-05  0.00D+00 EMaxC= 1.00D+00 BMatC= 1.68D-07 BMatP= 6.06D-08
 IDIUse=1 WtCom= 1.00D+00 WtEn= 0.00D+00
 Coeff-Com: -0.507D-02 0.336D-01 0.194D-01-0.388D-01-0.617D-01 0.296D-02
 Coeff-Com:  0.365D-01 0.800D-01-0.338D+00 0.537D-01 0.698D+00-0.324D+00
 Coeff-Com:  0.230D+01-0.395D+00 0.288D+00 0.302D+00 0.207D+01-0.781D+00
 Coeff-Com: -0.135D+01-0.159D+01
 Coeff:     -0.507D-02 0.336D-01 0.194D-01-0.388D-01-0.617D-01 0.296D-02
 Coeff:      0.365D-01 0.800D-01-0.338D+00 0.537D-01 0.698D+00-0.324D+00
 Coeff:      0.230D+01-0.395D+00 0.288D+00 0.302D+00 0.207D+01-0.781D+00
 Coeff:     -0.135D+01-0.159D+01
 Gap=     0.163 Goal=   None    Shift=    0.000
 RMSDP=6.41D-06 MaxDP=8.04D-05 DE= 4.19D-07 OVMax= 1.31D-04

 Cycle  50  Pass 1  IDiag  3:
 E=-0.590320185223959     Delta-E=       -0.000000095163 Rises=F Damp=F
 DIIS: error= 6.23D-05 at cycle  50 NSaved=  20.
 NSaved=20 IEnMin= 4 EnMin=-0.591100006496049     IErMin=12 ErrMin= 4.08D-05
 ErrMax= 6.23D-05  0.00D+00 EMaxC= 1.00D+00 BMatC= 1.59D-07 BMatP= 6.06D-08
 IDIUse=1 WtCom= 1.00D+00 WtEn= 0.00D+00
 Coeff-Com: -0.623D-02 0.365D-01 0.224D-01-0.350D-01-0.694D-01 0.241D-02
 Coeff-Com:  0.366D-01-0.170D+00 0.726D-01 0.468D+00-0.295D+00 0.239D+01
 Coeff-Com: -0.304D+00 0.182D+00 0.146D+00 0.208D+01-0.656D+00-0.105D+01
 Coeff-Com: -0.131D+01-0.534D+00
 Coeff:     -0.623D-02 0.365D-01 0.224D-01-0.350D-01-0.694D-01 0.241D-02
 Coeff:      0.366D-01-0.170D+00 0.726D-01 0.468D+00-0.295D+00 0.239D+01
 Coeff:     -0.304D+00 0.182D+00 0.146D+00 0.208D+01-0.656D+00-0.105D+01
 Coeff:     -0.131D+01-0.534D+00
 Gap=     0.163 Goal=   None    Shift=    0.000
 RMSDP=2.83D-06 MaxDP=3.10D-05 DE=-9.52D-08 OVMax= 6.72D-05

 Cycle  51  Pass 1  IDiag  3:
 E=-0.590320210586697     Delta-E=       -0.000000025363 Rises=F Damp=F
 DIIS: error= 6.20D-05 at cycle  51 NSaved=  20.
 NSaved=20 IEnMin= 4 EnMin=-0.591100006496049     IErMin=11 ErrMin= 4.08D-05
 ErrMax= 6.20D-05  0.00D+00 EMaxC= 1.00D+00 BMatC= 1.57D-07 BMatP= 6.06D-08
 IDIUse=1 WtCom= 1.00D+00 WtEn= 0.00D+00
 Coeff-Com: -0.978D-02 0.476D-01 0.257D-01-0.248D-01-0.101D+00 0.173D-01
 Coeff-Com:  0.314D-01 0.924D-01-0.437D-01-0.218D+00 0.279D+01-0.381D+00
 Coeff-Com:  0.465D-01-0.249D-01 0.242D+01-0.374D+00-0.357D+00-0.104D+01
 Coeff-Com:  0.368D+01-0.558D+01
 Coeff:     -0.978D-02 0.476D-01 0.257D-01-0.248D-01-0.101D+00 0.173D-01
 Coeff:      0.314D-01 0.924D-01-0.437D-01-0.218D+00 0.279D+01-0.381D+00
 Coeff:      0.465D-01-0.249D-01 0.242D+01-0.374D+00-0.357D+00-0.104D+01
 Coeff:      0.368D+01-0.558D+01
 Gap=     0.163 Goal=   None    Shift=    0.000
 RMSDP=5.08D-06 MaxDP=6.92D-05 DE=-2.54D-08 OVMax= 1.11D-04

 Cycle  52  Pass 1  IDiag  3:
 E=-0.590320144493830     Delta-E=        0.000000066093 Rises=F Damp=F
 DIIS: error= 6.31D-05 at cycle  52 NSaved=  20.
 NSaved=20 IEnMin= 4 EnMin=-0.591100006496049     IErMin=10 ErrMin= 4.08D-05
 ErrMax= 6.31D-05  0.00D+00 EMaxC= 1.00D+00 BMatC= 1.63D-07 BMatP= 6.06D-08
 IDIUse=1 WtCom= 1.00D+00 WtEn= 0.00D+00
 Coeff-Com: -0.103D-01 0.483D-01 0.245D-01-0.237D-01-0.102D+00 0.169D-01
 Coeff-Com:  0.325D-01 0.979D-01-0.135D+00 0.262D+01-0.365D+00 0.458D-01
 Coeff-Com: -0.565D-01 0.235D+01-0.361D+00-0.272D+00-0.938D+00 0.505D+01
 Coeff-Com: -0.575D+01-0.128D+01
 Coeff:     -0.103D-01 0.483D-01 0.245D-01-0.237D-01-0.102D+00 0.169D-01
 Coeff:      0.325D-01 0.979D-01-0.135D+00 0.262D+01-0.365D+00 0.458D-01
 Coeff:     -0.565D-01 0.235D+01-0.361D+00-0.272D+00-0.938D+00 0.505D+01
 Coeff:     -0.575D+01-0.128D+01
 Gap=     0.163 Goal=   None    Shift=    0.000
 RMSDP=7.24D-06 MaxDP=8.54D-05 DE= 6.61D-08 OVMax= 1.99D-04

 Cycle  53  Pass 1  IDiag  3:
 E=-0.590320089312115     Delta-E=        0.000000055182 Rises=F Damp=F
 DIIS: error= 6.31D-05 at cycle  53 NSaved=  20.
 NSaved=20 IEnMin= 4 EnMin=-0.591100006496049     IErMin= 9 ErrMin= 4.08D-05
 ErrMax= 6.31D-05  0.00D+00 EMaxC= 1.00D+00 BMatC= 1.64D-07 BMatP= 6.06D-08
 IDIUse=1 WtCom= 1.00D+00 WtEn= 0.00D+00
 Coeff-Com: -0.113D-01 0.491D-01 0.302D-01-0.229D-01-0.108D+00 0.180D-01
 Coeff-Com:  0.310D-01-0.148D+00 0.270D+01-0.381D+00 0.180D-02-0.139D+00
 Coeff-Com:  0.239D+01-0.238D+00-0.736D-01-0.818D+00 0.692D+01-0.615D+01
 Coeff-Com:  0.250D+00-0.329D+01
 Coeff:     -0.113D-01 0.491D-01 0.302D-01-0.229D-01-0.108D+00 0.180D-01
 Coeff:      0.310D-01-0.148D+00 0.270D+01-0.381D+00 0.180D-02-0.139D+00
 Coeff:      0.239D+01-0.238D+00-0.736D-01-0.818D+00 0.692D+01-0.615D+01
 Coeff:      0.250D+00-0.329D+01
 Gap=     0.163 Goal=   None    Shift=    0.000
 RMSDP=3.33D-05 MaxDP=4.13D-04 DE= 5.52D-08 OVMax= 9.14D-04

 Cycle  54  Pass 1  IDiag  3:
 E=-0.590320357918927     Delta-E=       -0.000000268607 Rises=F Damp=F
 DIIS: error= 6.24D-05 at cycle  54 NSaved=  20.
 NSaved=20 IEnMin= 4 EnMin=-0.591100006496049     IErMin= 9 ErrMin= 4.08D-05
 ErrMax= 6.24D-05  0.00D+00 EMaxC= 1.00D+00 BMatC= 1.59D-07 BMatP= 6.06D-08
 IDIUse=1 WtCom= 1.00D+00 WtEn= 0.00D+00
 Coeff-Com: -0.124D-01 0.516D-01 0.337D-01-0.202D-01-0.116D+00 0.203D-01
 Coeff-Com:  0.294D-01-0.166D+00 0.274D+01-0.365D+00-0.175D-01-0.221D+00
 Coeff-Com:  0.244D+01-0.184D+00 0.139D+00 0.906D+01-0.821D+01-0.569D+00
 Coeff-Com: -0.384D+01 0.219D+00
 Coeff:     -0.124D-01 0.516D-01 0.337D-01-0.202D-01-0.116D+00 0.203D-01
 Coeff:      0.294D-01-0.166D+00 0.274D+01-0.365D+00-0.175D-01-0.221D+00
 Coeff:      0.244D+01-0.184D+00 0.139D+00 0.906D+01-0.821D+01-0.569D+00
 Coeff:     -0.384D+01 0.219D+00
 Gap=     0.163 Goal=   None    Shift=    0.000
 RMSDP=3.74D-06 MaxDP=4.00D-05 DE=-2.69D-07 OVMax= 1.08D-04

 Cycle  55  Pass 1  IDiag  3:
 E=-0.590320361801673     Delta-E=       -0.000000003883 Rises=F Damp=F
 DIIS: error= 6.30D-05 at cycle  55 NSaved=  20.
 NSaved=20 IEnMin= 4 EnMin=-0.591100006496049     IErMin= 9 ErrMin= 4.08D-05
 ErrMax= 6.30D-05  0.00D+00 EMaxC= 1.00D+00 BMatC= 1.64D-07 BMatP= 6.06D-08
 IDIUse=1 WtCom= 1.00D+00 WtEn= 0.00D+00
 Coeff-Com: -0.114D-01 0.497D-01 0.307D-01-0.204D-01-0.112D+00 0.178D-01
 Coeff-Com:  0.321D-01-0.252D+00 0.281D+01-0.333D+00 0.296D-01-0.171D+00
 Coeff-Com:  0.236D+01-0.304D+00-0.128D+00 0.755D+01-0.751D+01-0.250D+01
 Coeff-Com:  0.102D+01-0.155D+01
 Coeff:     -0.114D-01 0.497D-01 0.307D-01-0.204D-01-0.112D+00 0.178D-01
 Coeff:      0.321D-01-0.252D+00 0.281D+01-0.333D+00 0.296D-01-0.171D+00
 Coeff:      0.236D+01-0.304D+00-0.128D+00 0.755D+01-0.751D+01-0.250D+01
 Coeff:      0.102D+01-0.155D+01
 Gap=     0.163 Goal=   None    Shift=    0.000
 RMSDP=5.23D-05 MaxDP=6.48D-04 DE=-3.88D-09 OVMax= 1.44D-03

 Cycle  56  Pass 1  IDiag  3:
 E=-0.590319944303246     Delta-E=        0.000000417498 Rises=F Damp=F
 DIIS: error= 6.40D-05 at cycle  56 NSaved=  20.
 NSaved=20 IEnMin= 4 EnMin=-0.591100006496049     IErMin= 9 ErrMin= 4.08D-05
 ErrMax= 6.40D-05  0.00D+00 EMaxC= 1.00D+00 BMatC= 1.70D-07 BMatP= 6.06D-08
 IDIUse=1 WtCom= 1.00D+00 WtEn= 0.00D+00
 Coeff-Com: -0.110D-01 0.485D-01 0.305D-01-0.239D-01-0.106D+00 0.163D-01
 Coeff-Com:  0.319D-01-0.283D+00 0.286D+01-0.308D+00 0.613D-01-0.115D+00
 Coeff-Com:  0.239D+01-0.382D+00-0.326D+00 0.568D+01-0.731D+01 0.542D+00
 Coeff-Com: -0.149D+01-0.294D+00
 Coeff:     -0.110D-01 0.485D-01 0.305D-01-0.239D-01-0.106D+00 0.163D-01
 Coeff:      0.319D-01-0.283D+00 0.286D+01-0.308D+00 0.613D-01-0.115D+00
 Coeff:      0.239D+01-0.382D+00-0.326D+00 0.568D+01-0.731D+01 0.542D+00
 Coeff:     -0.149D+01-0.294D+00
 Gap=     0.163 Goal=   None    Shift=    0.000
 RMSDP=2.96D-06 MaxDP=2.87D-05 DE= 4.17D-07 OVMax= 5.79D-05

 Cycle  57  Pass 1  IDiag  3:
 E=-0.590319970414669     Delta-E=       -0.000000026111 Rises=F Damp=F
 DIIS: error= 6.37D-05 at cycle  57 NSaved=  20.
 NSaved=20 IEnMin= 4 EnMin=-0.591100006496049     IErMin= 9 ErrMin= 4.08D-05
 ErrMax= 6.37D-05  0.00D+00 EMaxC= 1.00D+00 BMatC= 1.67D-07 BMatP= 6.06D-08
 IDIUse=1 WtCom= 1.00D+00 WtEn= 0.00D+00
 Coeff-Com: -0.794D-02 0.394D-01 0.298D-01-0.303D-01-0.815D-01 0.319D-02
 Coeff-Com:  0.345D-01-0.320D+00 0.274D+01-0.241D+00 0.781D-01 0.184D-01
 Coeff-Com:  0.210D+01-0.588D+00-0.820D+00-0.902D+00 0.166D+01-0.815D+00
 Coeff-Com:  0.303D+00-0.220D+01
 Coeff:     -0.794D-02 0.394D-01 0.298D-01-0.303D-01-0.815D-01 0.319D-02
 Coeff:      0.345D-01-0.320D+00 0.274D+01-0.241D+00 0.781D-01 0.184D-01
 Coeff:      0.210D+01-0.588D+00-0.820D+00-0.902D+00 0.166D+01-0.815D+00
 Coeff:      0.303D+00-0.220D+01
 Gap=     0.163 Goal=   None    Shift=    0.000
 RMSDP=8.63D-05 MaxDP=1.09D-03 DE=-2.61D-08 OVMax= 2.33D-03

 Cycle  58  Pass 1  IDiag  3:
 E=-0.590320694277011     Delta-E=       -0.000000723862 Rises=F Damp=F
 DIIS: error= 6.08D-05 at cycle  58 NSaved=  20.
 NSaved=20 IEnMin= 4 EnMin=-0.591100006496049     IErMin= 9 ErrMin= 4.08D-05
 ErrMax= 6.08D-05  0.00D+00 EMaxC= 1.00D+00 BMatC= 1.50D-07 BMatP= 6.06D-08
 IDIUse=1 WtCom= 1.00D+00 WtEn= 0.00D+00
 Coeff-Com: -0.811D-02 0.395D-01 0.291D-01-0.314D-01-0.788D-01 0.227D-02
 Coeff-Com:  0.346D-01-0.353D+00 0.276D+01-0.237D+00 0.859D-01 0.255D-02
 Coeff-Com:  0.210D+01-0.586D+00-0.822D+00-0.687D+00 0.147D+01-0.575D+00
 Coeff-Com: -0.209D+01-0.536D-01
 Coeff:     -0.811D-02 0.395D-01 0.291D-01-0.314D-01-0.788D-01 0.227D-02
 Coeff:      0.346D-01-0.353D+00 0.276D+01-0.237D+00 0.859D-01 0.255D-02
 Coeff:      0.210D+01-0.586D+00-0.822D+00-0.687D+00 0.147D+01-0.575D+00
 Coeff:     -0.209D+01-0.536D-01
 Gap=     0.163 Goal=   None    Shift=    0.000
 RMSDP=4.34D-06 MaxDP=4.95D-05 DE=-7.24D-07 OVMax= 1.02D-04

 Cycle  59  Pass 1  IDiag  3:
 E=-0.590320717654322     Delta-E=       -0.000000023377 Rises=F Damp=F
 DIIS: error= 6.11D-05 at cycle  59 NSaved=  20.
 NSaved=20 IEnMin= 4 EnMin=-0.591100006496049     IErMin= 9 ErrMin= 4.08D-05
 ErrMax= 6.11D-05  0.00D+00 EMaxC= 1.00D+00 BMatC= 1.53D-07 BMatP= 6.06D-08
 IDIUse=1 WtCom= 1.00D+00 WtEn= 0.00D+00
 Coeff-Com: -0.864D-02 0.429D-01 0.308D-01-0.293D-01-0.926D-01 0.973D-02
 Coeff-Com:  0.336D-01-0.331D+00 0.288D+01-0.269D+00 0.110D+00 0.447D-01
 Coeff-Com:  0.227D+01-0.572D+00-0.830D+00-0.181D+01 0.103D+01-0.749D+00
 Coeff-Com:  0.578D-01-0.824D+00
 Coeff:     -0.864D-02 0.429D-01 0.308D-01-0.293D-01-0.926D-01 0.973D-02
 Coeff:      0.336D-01-0.331D+00 0.288D+01-0.269D+00 0.110D+00 0.447D-01
 Coeff:      0.227D+01-0.572D+00-0.830D+00-0.181D+01 0.103D+01-0.749D+00
 Coeff:      0.578D-01-0.824D+00
 Gap=     0.163 Goal=   None    Shift=    0.000
 RMSDP=1.01D-04 MaxDP=1.27D-03 DE=-2.34D-08 OVMax= 2.74D-03

 Cycle  60  Pass 1  IDiag  3:
 E=-0.590319878032290     Delta-E=        0.000000839622 Rises=F Damp=F
 DIIS: error= 6.38D-05 at cycle  60 NSaved=  20.
 NSaved=20 IEnMin= 4 EnMin=-0.591100006496049     IErMin= 9 ErrMin= 4.08D-05
 ErrMax= 6.38D-05  0.00D+00 EMaxC= 1.00D+00 BMatC= 1.71D-07 BMatP= 6.06D-08
 IDIUse=1 WtCom= 1.00D+00 WtEn= 0.00D+00
 Coeff-Com: -0.951D-02 0.446D-01 0.254D-01-0.337D-01-0.726D-01-0.584D-02
 Coeff-Com:  0.382D-01-0.474D+00 0.294D+01-0.244D+00 0.195D+00 0.292D-01
 Coeff-Com:  0.210D+01-0.579D+00-0.975D+00 0.545D+00-0.881D+00-0.161D+00
 Coeff-Com: -0.905D+00-0.575D+00
 Coeff:     -0.951D-02 0.446D-01 0.254D-01-0.337D-01-0.726D-01-0.584D-02
 Coeff:      0.382D-01-0.474D+00 0.294D+01-0.244D+00 0.195D+00 0.292D-01
 Coeff:      0.210D+01-0.579D+00-0.975D+00 0.545D+00-0.881D+00-0.161D+00
 Coeff:     -0.905D+00-0.575D+00
 Gap=     0.163 Goal=   None    Shift=    0.000
 RMSDP=1.76D-05 MaxDP=2.17D-04 DE= 8.40D-07 OVMax= 4.69D-04

 Cycle  61  Pass 1  IDiag  3:
 E=-0.590319746540615     Delta-E=        0.000000131492 Rises=F Damp=F
 DIIS: error= 6.42D-05 at cycle  61 NSaved=  20.
 NSaved=20 IEnMin= 4 EnMin=-0.591100006496049     IErMin= 9 ErrMin= 4.08D-05
 ErrMax= 6.42D-05  0.00D+00 EMaxC= 1.00D+00 BMatC= 1.69D-07 BMatP= 6.06D-08
 IDIUse=1 WtCom= 1.00D+00 WtEn= 0.00D+00
 Coeff-Com: -0.101D-01 0.457D-01 0.245D-01-0.101D-01-0.108D+00 0.114D-01
 Coeff-Com:  0.338D-01-0.435D+00 0.292D+01-0.271D+00 0.345D-01-0.231D+00
 Coeff-Com:  0.211D+01-0.419D+00 0.853D+00 0.770D-01-0.106D+00-0.697D+00
 Coeff-Com: -0.601D+00-0.223D+01
 Coeff:     -0.101D-01 0.457D-01 0.245D-01-0.101D-01-0.108D+00 0.114D-01
 Coeff:      0.338D-01-0.435D+00 0.292D+01-0.271D+00 0.345D-01-0.231D+00
 Coeff:      0.211D+01-0.419D+00 0.853D+00 0.770D-01-0.106D+00-0.697D+00
 Coeff:     -0.601D+00-0.223D+01
 Gap=     0.163 Goal=   None    Shift=    0.000
 RMSDP=1.46D-04 MaxDP=1.84D-03 DE= 1.31D-07 OVMax= 3.99D-03

 Cycle  62  Pass 1  IDiag  3:
 E=-0.590320960399879     Delta-E=       -0.000001213859 Rises=F Damp=F
 DIIS: error= 5.98D-05 at cycle  62 NSaved=  20.
 NSaved=20 IEnMin= 4 EnMin=-0.591100006496049     IErMin= 9 ErrMin= 4.08D-05
 ErrMax= 5.98D-05  0.00D+00 EMaxC= 1.00D+00 BMatC= 1.44D-07 BMatP= 6.06D-08
 IDIUse=1 WtCom= 1.00D+00 WtEn= 0.00D+00
 Coeff-Com: -0.927D-02 0.424D-01 0.304D-01-0.119D-01-0.118D+00 0.210D-01
 Coeff-Com:  0.319D-01-0.329D+00 0.283D+01-0.257D+00 0.226D-01-0.222D+00
 Coeff-Com:  0.210D+01-0.486D+00 0.105D+01-0.454D+00 0.103D+00-0.115D+01
 Coeff-Com: -0.230D+01 0.991D-01
 Coeff:     -0.927D-02 0.424D-01 0.304D-01-0.119D-01-0.118D+00 0.210D-01
 Coeff:      0.319D-01-0.329D+00 0.283D+01-0.257D+00 0.226D-01-0.222D+00
 Coeff:      0.210D+01-0.486D+00 0.105D+01-0.454D+00 0.103D+00-0.115D+01
 Coeff:     -0.230D+01 0.991D-01
 Gap=     0.163 Goal=   None    Shift=    0.000
 RMSDP=3.58D-05 MaxDP=4.48D-04 DE=-1.21D-06 OVMax= 9.94D-04

 Cycle  63  Pass 1  IDiag  3:
 E=-0.590320665144418     Delta-E=        0.000000295255 Rises=F Damp=F
 DIIS: error= 6.11D-05 at cycle  63 NSaved=  20.
 NSaved=20 IEnMin= 4 EnMin=-0.591100006496049     IErMin= 9 ErrMin= 4.08D-05
 ErrMax= 6.11D-05  0.00D+00 EMaxC= 1.00D+00 BMatC= 1.53D-07 BMatP= 6.06D-08
 IDIUse=1 WtCom= 1.00D+00 WtEn= 0.00D+00
 Coeff-Com: -0.948D-02 0.434D-01 0.292D-01-0.368D-01-0.829D-01 0.698D-02
 Coeff-Com:  0.358D-01-0.309D+00 0.291D+01-0.202D+00 0.118D+00-0.243D+00
 Coeff-Com:  0.194D+01-0.729D+00 0.423D+00-0.153D+01 0.579D-01-0.180D+01
 Coeff-Com:  0.193D+00 0.192D+00
 Coeff:     -0.948D-02 0.434D-01 0.292D-01-0.368D-01-0.829D-01 0.698D-02
 Coeff:      0.358D-01-0.309D+00 0.291D+01-0.202D+00 0.118D+00-0.243D+00
 Coeff:      0.194D+01-0.729D+00 0.423D+00-0.153D+01 0.579D-01-0.180D+01
 Coeff:      0.193D+00 0.192D+00
 Gap=     0.163 Goal=   None    Shift=    0.000
 RMSDP=1.93D-04 MaxDP=2.42D-03 DE= 2.95D-07 OVMax= 5.28D-03

 Cycle  64  Pass 1  IDiag  3:
 E=-0.590319032928790     Delta-E=        0.000001632216 Rises=F Damp=F
 DIIS: error= 6.66D-05 at cycle  64 NSaved=  20.
 NSaved=20 IEnMin= 4 EnMin=-0.591100006496049     IErMin= 9 ErrMin= 4.08D-05
 ErrMax= 6.66D-05  0.00D+00 EMaxC= 1.00D+00 BMatC= 1.90D-07 BMatP= 6.06D-08
 IDIUse=1 WtCom= 1.00D+00 WtEn= 0.00D+00
 Coeff-Com: -0.980D-02 0.439D-01 0.279D-01-0.413D-01-0.764D-01 0.925D-02
 Coeff-Com:  0.327D-01-0.382D+00 0.295D+01-0.221D+00 0.933D-01-0.214D+00
 Coeff-Com:  0.195D+01-0.653D+00-0.854D+00 0.267D-01-0.179D+01-0.155D+00
 Coeff-Com:  0.682D+00-0.423D+00
 Coeff:     -0.980D-02 0.439D-01 0.279D-01-0.413D-01-0.764D-01 0.925D-02
 Coeff:      0.327D-01-0.382D+00 0.295D+01-0.221D+00 0.933D-01-0.214D+00
 Coeff:      0.195D+01-0.653D+00-0.854D+00 0.267D-01-0.179D+01-0.155D+00
 Coeff:      0.682D+00-0.423D+00
 Gap=     0.163 Goal=   None    Shift=    0.000
 RMSDP=6.00D-05 MaxDP=7.59D-04 DE= 1.63D-06 OVMax= 1.64D-03

 Cycle  65  Pass 1  IDiag  1:
 E=-0.590319591016737     Delta-E=       -0.000000558088 Rises=F Damp=F
 DIIS: error= 6.40D-05 at cycle  65 NSaved=  20.
 NSaved=20 IEnMin= 4 EnMin=-0.591100006496049     IErMin= 9 ErrMin= 4.08D-05
 ErrMax= 6.40D-05  0.00D+00 EMaxC= 1.00D+00 BMatC= 1.67D-07 BMatP= 6.06D-08
 IDIUse=1 WtCom= 1.00D+00 WtEn= 0.00D+00
 Coeff-Com: -0.104D-01 0.463D-01 0.244D-01-0.402D-01-0.752D-01 0.122D-01
 Coeff-Com:  0.290D-01-0.413D+00 0.300D+01-0.245D+00 0.834D-01-0.193D+00
 Coeff-Com:  0.198D+01-0.533D+00-0.104D-01-0.215D+01-0.103D+00 0.676D+00
 Coeff-Com: -0.382D+00-0.696D+00
 Coeff:     -0.104D-01 0.463D-01 0.244D-01-0.402D-01-0.752D-01 0.122D-01
 Coeff:      0.290D-01-0.413D+00 0.300D+01-0.245D+00 0.834D-01-0.193D+00
 Coeff:      0.198D+01-0.533D+00-0.104D-01-0.215D+01-0.103D+00 0.676D+00
 Coeff:     -0.382D+00-0.696D+00
 RMSDP=4.97D-05 MaxDP=6.23D-04 DE=-5.58D-07 OVMax= 1.64D-03

 Cycle  66  Pass 1  IDiag  3:
 E=-0.590320007601576     Delta-E=       -0.000000416585 Rises=F Damp=F
 DIIS: error= 6.25D-05 at cycle  66 NSaved=  20.
 NSaved=20 IEnMin= 4 EnMin=-0.591100006496049     IErMin= 9 ErrMin= 4.08D-05
 ErrMax= 6.25D-05  0.00D+00 EMaxC= 1.00D+00 BMatC= 1.60D-07 BMatP= 6.06D-08
 IDIUse=1 WtCom= 1.00D+00 WtEn= 0.00D+00
 Coeff-Com: -0.112D-01 0.494D-01 0.177D-01-0.341D-01-0.750D-01 0.127D-01
 Coeff-Com:  0.272D-01-0.319D+00 0.292D+01-0.298D+00-0.416D-01-0.296D+00
 Coeff-Com:  0.196D+01-0.886D-01 0.899D-01-0.471D+00 0.233D+00 0.981D+00
 Coeff-Com: -0.512D+00-0.315D+01
 Coeff:     -0.112D-01 0.494D-01 0.177D-01-0.341D-01-0.750D-01 0.127D-01
[...]
 ErrMax= 6.03D-05  0.00D+00 EMaxC= 1.00D+00 BMatC= 1.52D-07 BMatP= 8.10D-08
 IDIUse=1 WtCom= 1.00D+00 WtEn= 0.00D+00
 Coeff-Com: -0.322D-01 0.137D+00-0.614D-02 0.214D+00-0.533D+00 0.210D+00
 Coeff-Com: -0.242D-02 0.190D+00 0.237D+01 0.219D-01 0.419D+00-0.178D+00
 Coeff-Com: -0.305D+00 0.775D-01 0.291D+00 0.174D+01 0.793D-01-0.295D+01
 Coeff-Com: -0.181D-01-0.719D+00
 Coeff:     -0.322D-01 0.137D+00-0.614D-02 0.214D+00-0.533D+00 0.210D+00
 Coeff:     -0.242D-02 0.190D+00 0.237D+01 0.219D-01 0.419D+00-0.178D+00
 Coeff:     -0.305D+00 0.775D-01 0.291D+00 0.174D+01 0.793D-01-0.295D+01
 Coeff:     -0.181D-01-0.719D+00
 Gap=     0.163 Goal=   None    Shift=    0.000
 RMSDP=3.38D-04 MaxDP=4.15D-03 DE=-4.17D-07 OVMax= 9.26D-03

 Cycle 127  Pass 1  IDiag  3:
 E=-0.590323176036350     Delta-E=       -0.000002501116 Rises=F Damp=F
 DIIS: error= 5.80D-05 at cycle 127 NSaved=  20.
 NSaved=20 IEnMin= 4 EnMin=-0.591100006496049     IErMin=15 ErrMin= 3.94D-05
 ErrMax= 5.80D-05  0.00D+00 EMaxC= 1.00D+00 BMatC= 1.45D-07 BMatP= 8.10D-08
 IDIUse=1 WtCom= 1.00D+00 WtEn= 0.00D+00
 Coeff-Com: -0.334D-01 0.137D+00-0.766D-02 0.213D+00-0.516D+00 0.200D+00
 Coeff-Com: -0.469D-02 0.155D+00 0.244D+01 0.133D-01 0.429D+00-0.232D+00
 Coeff-Com: -0.333D+00 0.640D-01 0.255D+00 0.167D+01-0.980D-01-0.293D+01
 Coeff-Com: -0.946D+00 0.522D+00
 Coeff:     -0.334D-01 0.137D+00-0.766D-02 0.213D+00-0.516D+00 0.200D+00
 Coeff:     -0.469D-02 0.155D+00 0.244D+01 0.133D-01 0.429D+00-0.232D+00
 Coeff:     -0.333D+00 0.640D-01 0.255D+00 0.167D+01-0.980D-01-0.293D+01
 Coeff:     -0.946D+00 0.522D+00
 Gap=     0.163 Goal=   None    Shift=    0.000
 RMSDP=5.78D-05 MaxDP=6.97D-04 DE=-2.50D-06 OVMax= 1.58D-03

 Cycle 128  Pass 1  IDiag  3:
 E=-0.590322781579061     Delta-E=        0.000000394457 Rises=F Damp=F
 DIIS: error= 5.83D-05 at cycle 128 NSaved=  20.
 NSaved=20 IEnMin= 4 EnMin=-0.591100006496049     IErMin=15 ErrMin= 3.94D-05
 ErrMax= 5.83D-05  0.00D+00 EMaxC= 1.00D+00 BMatC= 1.43D-07 BMatP= 8.10D-08
 IDIUse=1 WtCom= 1.00D+00 WtEn= 0.00D+00
 Coeff-Com: -0.328D-01 0.135D+00-0.971D-03 0.208D+00-0.520D+00 0.203D+00
 Coeff-Com: -0.440D-02 0.159D+00 0.227D+01 0.159D-01 0.396D+00-0.221D+00
 Coeff-Com: -0.294D+00 0.749D-01 0.241D+00 0.181D+01-0.130D+00-0.308D+01
 Coeff-Com:  0.470D+00-0.701D+00
 Coeff:     -0.328D-01 0.135D+00-0.971D-03 0.208D+00-0.520D+00 0.203D+00
 Coeff:     -0.440D-02 0.159D+00 0.227D+01 0.159D-01 0.396D+00-0.221D+00
 Coeff:     -0.294D+00 0.749D-01 0.241D+00 0.181D+01-0.130D+00-0.308D+01
 Coeff:      0.470D+00-0.701D+00
 Gap=     0.163 Goal=   None    Shift=    0.000
 RMSDP=2.72D-04 MaxDP=3.36D-03 DE= 3.94D-07 OVMax= 7.43D-03

 >>>>>>>>>> Convergence criterion not met.
 SCF Done:  E(RPM6) = -0.590322781579     A.U. after  129 cycles
            NFock=128  Conv=0.27D-03     -V/T= 0.9940
 KE=-9.768026664457D+01 PE=-3.943004270510D+02 EE= 2.157246983012D+02
 Leave Link  502 at Wed Jan  5 15:23:19 2022, MaxMem=   402653184 cpu:              13.8 elap:               0.3
 (Enter /work/01114/jfonner/frontera/gaussian/16rC.01/g16/l508.exe)
 Keep J ints in memory in canonical form, NReq=865579.
 FoFCou: FMM=F IPFlag=           0 FMFlag=           0 FMFlg1=           0
         NFxFlg=           0 DoJE=F BraDBF=F KetDBF=F FulRan=T
         wScrn=  0.000000 ICntrl=       600 IOpCl=  2 I1Cent=           0 NGrid=           0
         NMat0=    1 NMatS0=    104 NMatT0=    0 NMatD0=    1 NMtDS0=    0 NMtDT0=    0
 Symmetry not used in FoFCou.
 Two-electron integral symmetry not used.
 Tight linear equation convergence will be used.
 RPM6 wavefunction.
 Quadratic Convergence SCF Method.
 Line search only if initial step raises energy.
 Iteration   1 EE=-0.590320664323144                                    Grad=5.914D-04 Max rot=    0.0102 deg.
 QCNR:  CnvC1=3.10D-09 CnvC2=3.10D-08
 LinEq1:  Iter=  0 NonCon=     1 RMS=6.85D-05 Max=1.09D-03 NDo=     1
 AX will form     1 AO Fock derivatives at one time.
 LinEq1:  Iter=  1 NonCon=     1 RMS=1.90D-05 Max=2.81D-04 NDo=     1
 LinEq1:  Iter=  2 NonCon=     1 RMS=6.37D-06 Max=5.96D-05 NDo=     1
 LinEq1:  Iter=  3 NonCon=     1 RMS=2.50D-06 Max=2.21D-05 NDo=     1
 LinEq1:  Iter=  4 NonCon=     1 RMS=6.80D-07 Max=4.75D-06 NDo=     1
 LinEq1:  Iter=  5 NonCon=     1 RMS=2.04D-07 Max=1.32D-06 NDo=     1
 LinEq1:  Iter=  6 NonCon=     1 RMS=5.44D-08 Max=3.18D-07 NDo=     1
 LinEq1:  Iter=  7 NonCon=     1 RMS=1.90D-08 Max=1.54D-07 NDo=     1
 LinEq1:  Iter=  8 NonCon=     1 RMS=7.16D-09 Max=6.18D-08 NDo=     1
 LinEq1:  Iter=  9 NonCon=     0 RMS=1.80D-09 Max=1.66D-08 NDo=     1
 Linear equations converged to 3.098D-09 3.098D-08 after     9 iterations.
 Angle between quadratic step and gradient=  81.23 degrees.
     ILin= 1 X=0.000D+00 Y=-5.903206643231D-01 DE= 0.00D+00 F= -2.65D-05
     ILin= 2 X=1.000D+00 Y=-5.903788346961D-01 DE=-5.82D-05 F= -1.23D-04 OKLS=F
     ILin= 3 X=1.600D+00 Y=-5.904837765238D-01 DE=-1.63D-04 F= -2.24D-04
     ILin= 4 X=2.600D+00 Y=-5.907474671041D-01 DE=-4.27D-04 F= -2.56D-04
     ILin= 5 X=4.200D+00 Y=-5.906339792828D-01 DE=-3.13D-04 F=  6.53D-04
     An  expanding polynomial of degree  5 produced  3.3972
 Iteration   2 EE=-0.590869301067983     Delta-E=       -0.000548636745 Grad=1.886D-02 Max rot=    0.2798 deg.
 Gradient too large for Newton-Raphson -- use scaled steepest descent instead.
 Alpha Gap=     0.174 HL deriv= 1.91D-02
     ILin= 1 X=0.000D+00 Y=-5.908693010680D-01 DE= 0.00D+00 F= -1.71D-03
     ILin= 2 X=3.000D-01 Y=-5.913055841453D-01 DE=-4.36D-04 F= -1.20D-03 OKLS=F
     ILin= 3 X=6.000D-01 Y=-5.915876138898D-01 DE=-7.18D-04 F= -6.84D-04
     ILin= 4 X=1.200D+00 Y=-5.916935386374D-01 DE=-8.24D-04 F=  3.28D-04
     Accept linear search using points  3 and  4.
     An  expanding polynomial of degree  4 produced  0.9434
 Iteration   3 EE=-0.591722568967157     Delta-E=       -0.000853267899 Grad=4.962D-03 Max rot=    0.1021 deg.
 QCNR:  CnvC1=3.10D-09 CnvC2=3.10D-08
 LinEq1:  Iter=  0 NonCon=     1 RMS=6.71D-04 Max=1.36D-02 NDo=     1
 LinEq1:  Iter=  1 NonCon=     1 RMS=1.67D-04 Max=1.23D-03 NDo=     1
 LinEq1:  Iter=  2 NonCon=     1 RMS=6.23D-05 Max=6.00D-04 NDo=     1
 LinEq1:  Iter=  3 NonCon=     1 RMS=1.24D-05 Max=1.15D-04 NDo=     1
 LinEq1:  Iter=  4 NonCon=     1 RMS=4.09D-06 Max=4.63D-05 NDo=     1
 LinEq1:  Iter=  5 NonCon=     1 RMS=1.35D-06 Max=9.79D-06 NDo=     1
 LinEq1:  Iter=  6 NonCon=     1 RMS=3.56D-07 Max=2.42D-06 NDo=     1
 LinEq1:  Iter=  7 NonCon=     1 RMS=1.14D-07 Max=9.56D-07 NDo=     1
 LinEq1:  Iter=  8 NonCon=     1 RMS=4.69D-08 Max=3.73D-07 NDo=     1
 LinEq1:  Iter=  9 NonCon=     1 RMS=1.43D-08 Max=7.86D-08 NDo=     1
 LinEq1:  Iter= 10 NonCon=     1 RMS=3.22D-09 Max=1.70D-08 NDo=     1
 LinEq1:  Iter= 11 NonCon=     0 RMS=6.87D-10 Max=4.86D-09 NDo=     1
 Linear equations converged to 3.098D-09 3.098D-08 after    11 iterations.
 Angle between quadratic step and gradient= 131.70 degrees.
 Incorrect curvature in search direction -- initial direction reversed.
     ILin= 1 X=0.000D+00 Y=-5.917225689672D-01 DE= 0.00D+00 F= -3.54D-03
     ILin= 2 X=1.000D+00 Y=-5.934585360887D-01 DE=-1.74D-03 F=  5.14D-03 OKLS=F
     ILin= 3 X=1.400D+00 Y=-5.890421323865D-01 DE= 2.68D-03 F=  1.77D-02
     An  expanding polynomial of degree  3 produced  0.5951
 Iteration   4 EE=-0.593855061704744     Delta-E=       -0.002132492738 Grad=8.922D-03 Max rot=    0.1302 deg.
 QCNR:  CnvC1=3.10D-09 CnvC2=3.10D-08
 LinEq1:  Iter=  0 NonCon=     1 RMS=8.05D-04 Max=7.98D-03 NDo=     1
 LinEq1:  Iter=  1 NonCon=     1 RMS=4.24D-04 Max=7.43D-03 NDo=     1
 LinEq1:  Iter=  2 NonCon=     1 RMS=9.22D-05 Max=5.96D-04 NDo=     1
 LinEq1:  Iter=  3 NonCon=     1 RMS=2.63D-05 Max=1.97D-04 NDo=     1
 LinEq1:  Iter=  4 NonCon=     1 RMS=7.93D-06 Max=6.16D-05 NDo=     1
 LinEq1:  Iter=  5 NonCon=     1 RMS=2.58D-06 Max=1.45D-05 NDo=     1
 LinEq1:  Iter=  6 NonCon=     1 RMS=7.28D-07 Max=4.72D-06 NDo=     1
 LinEq1:  Iter=  7 NonCon=     1 RMS=1.70D-07 Max=1.30D-06 NDo=     1
 LinEq1:  Iter=  8 NonCon=     1 RMS=4.55D-08 Max=4.89D-07 NDo=     1
 LinEq1:  Iter=  9 NonCon=     1 RMS=9.72D-09 Max=5.18D-08 NDo=     1
 LinEq1:  Iter= 10 NonCon=     0 RMS=2.34D-09 Max=1.72D-08 NDo=     1
 Linear equations converged to 3.098D-09 3.098D-08 after    10 iterations.
 Angle between quadratic step and gradient=  63.85 degrees.
     ILin= 1 X=0.000D+00 Y=-5.938550617047D-01 DE= 0.00D+00 F= -2.34D-03
     ILin= 2 X=1.000D+00 Y=-5.947474921848D-01 DE=-8.92D-04 F=  8.79D-04 OKLS=T
     Accept linear search using points  1 and  2.
     An  expanding polynomial of degree  2 produced  0.7806
 Iteration   5 EE=-0.594841543610869     Delta-E=       -0.000986481906 Grad=4.798D-03 Max rot=    0.0581 deg.
 QCNR:  CnvC1=3.10D-09 CnvC2=3.10D-08
 LinEq1:  Iter=  0 NonCon=     1 RMS=4.68D-04 Max=5.95D-03 NDo=     1
 LinEq1:  Iter=  1 NonCon=     1 RMS=9.57D-05 Max=5.99D-04 NDo=     1
 LinEq1:  Iter=  2 NonCon=     1 RMS=2.24D-05 Max=1.66D-04 NDo=     1
 LinEq1:  Iter=  3 NonCon=     1 RMS=7.68D-06 Max=6.71D-05 NDo=     1
 LinEq1:  Iter=  4 NonCon=     1 RMS=2.50D-06 Max=2.36D-05 NDo=     1
 LinEq1:  Iter=  5 NonCon=     1 RMS=8.25D-07 Max=9.20D-06 NDo=     1
 LinEq1:  Iter=  6 NonCon=     1 RMS=2.28D-07 Max=1.58D-06 NDo=     1
 LinEq1:  Iter=  7 NonCon=     1 RMS=5.22D-08 Max=2.78D-07 NDo=     1
 LinEq1:  Iter=  8 NonCon=     1 RMS=1.44D-08 Max=1.11D-07 NDo=     1
 LinEq1:  Iter=  9 NonCon=     1 RMS=4.78D-09 Max=3.57D-08 NDo=     1
 LinEq1:  Iter= 10 NonCon=     0 RMS=1.14D-09 Max=8.22D-09 NDo=     1
 Linear equations converged to 3.098D-09 3.098D-08 after    10 iterations.
 Angle between quadratic step and gradient=  44.64 degrees.
     ILin= 1 X=0.000D+00 Y=-5.948415436109D-01 DE= 0.00D+00 F= -1.19D-04
     ILin= 2 X=1.000D+00 Y=-5.949007051877D-01 DE=-5.92D-05 F=  5.06D-07 OKLS=T
     Accept linear search using points  1 and  2.
     An  expanding polynomial of degree  2 produced  0.9958
     Minimum is close to point  2 DX= -4.23D-03 DF= -1.07D-09 DXR=  4.25D-03 DFR=  1.81D-05 which will be used.
 Iteration   6 EE=-0.594900705187683     Delta-E=       -0.000059161577 Grad=3.647D-05 Max rot=    0.0007 deg.
 QCNR:  CnvC1=3.65D-10 CnvC2=3.65D-09
 LinEq1:  Iter=  0 NonCon=     1 RMS=4.51D-06 Max=7.45D-05 NDo=     1
 LinEq1:  Iter=  1 NonCon=     1 RMS=1.51D-06 Max=1.38D-05 NDo=     1
 LinEq1:  Iter=  2 NonCon=     1 RMS=4.12D-07 Max=4.34D-06 NDo=     1
 LinEq1:  Iter=  3 NonCon=     1 RMS=1.18D-07 Max=9.96D-07 NDo=     1
 LinEq1:  Iter=  4 NonCon=     1 RMS=3.39D-08 Max=3.37D-07 NDo=     1
 LinEq1:  Iter=  5 NonCon=     1 RMS=9.14D-09 Max=4.53D-08 NDo=     1
 LinEq1:  Iter=  6 NonCon=     1 RMS=3.63D-09 Max=2.60D-08 NDo=     1
 LinEq1:  Iter=  7 NonCon=     1 RMS=7.54D-10 Max=4.90D-09 NDo=     1
 LinEq1:  Iter=  8 NonCon=     0 RMS=1.75D-10 Max=1.67D-09 NDo=     1
 Linear equations converged to 3.647D-10 3.647D-09 after     8 iterations.
 Angle between quadratic step and gradient=  56.37 degrees.
     ILin= 1 X=0.000D+00 Y=-5.949007051877D-01 DE= 0.00D+00 F= -1.75D-08
     ILin= 2 X=1.000D+00 Y=-5.949007139104D-01 DE=-8.72D-09
 Iteration   7 EE=-0.594900713910420     Delta-E=       -0.000000008723 Grad=7.147D-07 Max rot=    0.0000 deg.
 QCNR:  CnvC1=7.15D-12 CnvC2=7.15D-11
 LinEq1:  Iter=  0 NonCon=     1 RMS=4.25D-08 Max=4.07D-07 NDo=     1
 LinEq1:  Iter=  1 NonCon=     1 RMS=1.52D-08 Max=1.70D-07 NDo=     1
 LinEq1:  Iter=  2 NonCon=     1 RMS=3.03D-09 Max=1.51D-08 NDo=     1
 LinEq1:  Iter=  3 NonCon=     1 RMS=8.62D-10 Max=1.04D-08 NDo=     1
 LinEq1:  Iter=  4 NonCon=     1 RMS=2.64D-10 Max=1.49D-09 NDo=     1
 LinEq1:  Iter=  5 NonCon=     1 RMS=8.34D-11 Max=6.33D-10 NDo=     1
 LinEq1:  Iter=  6 NonCon=     1 RMS=2.36D-11 Max=2.60D-10 NDo=     1
 LinEq1:  Iter=  7 NonCon=     0 RMS=6.82D-12 Max=4.48D-11 NDo=     1
 Linear equations converged to 7.147D-12 7.147D-11 after     7 iterations.
 Angle between quadratic step and gradient=  65.20 degrees.
     ILin= 1 X=0.000D+00 Y=-5.949007139104D-01 DE= 0.00D+00 F= -4.42D-12
     ILin= 2 X=1.000D+00 Y=-5.949007139129D-01 DE=-2.50D-12
 Iteration   8 EE=-0.594900713912921     Delta-E=       -0.000000000003 Grad=1.899D-08 Max rot=    0.0000 deg.
 Rotation gradient small -- convergence achieved.
 SCF Done:  E(RPM6) = -0.594900713913     a.u. after    8 cycles
            Convg  =    0.1899D-07                    73 Fock formations.
              S**2 =  0.0000                  -V/T =  0.9939
 Leave Link  508 at Wed Jan  5 15:23:19 2022, MaxMem=   402653184 cpu:              10.8 elap:               0.3
 (Enter /work/01114/jfonner/frontera/gaussian/16rC.01/g16/l601.exe)
 Copying SCF densities to generalized density rwf, IOpCl= 0 IROHF=0.

 **********************************************************************

            Population analysis using the SCF Density.

 **********************************************************************

 Alpha  occ. eigenvalues --   -1.80633  -1.78884  -1.70413  -1.67500  -1.63613
 Alpha  occ. eigenvalues --   -1.53033  -1.45469  -1.38225  -1.31092  -1.24878
 Alpha  occ. eigenvalues --   -1.18876  -1.16364  -1.15711  -1.14166  -1.11823
 Alpha  occ. eigenvalues --   -1.09325  -1.06447  -1.05617  -1.02056  -0.98297
 Alpha  occ. eigenvalues --   -0.96667  -0.93464  -0.91236  -0.88527
 Alpha virt. eigenvalues --   -0.72574  -0.64308  -0.62558  -0.57212  -0.56171
 Alpha virt. eigenvalues --   -0.55859  -0.52640  -0.50753  -0.49788  -0.48519
 Alpha virt. eigenvalues --   -0.47693  -0.46239  -0.43938  -0.40954  -0.39418
 Alpha virt. eigenvalues --   -0.38356  -0.37322  -0.35771  -0.33924  -0.28278
          Condensed to atoms (all electrons):
               1          2          3          4          5          6
     1  C    3.665335   0.000000   0.000000   0.000000   0.000000   0.000000
     2  O    0.000000   5.879218   0.000000   0.000000   0.000000   0.000000
     3  N    0.000000   0.000000   5.046118   0.000000   0.000000   0.000000
     4  C    0.000000   0.000000   0.000000   3.732242   0.000000   0.000000
     5  C    0.000000   0.000000   0.000000   0.000000   3.716458   0.000000
     6  O    0.000000   0.000000   0.000000   0.000000   0.000000   5.996771
     7  N    0.000000   0.000000   0.000000   0.000000   0.000000   0.000000
     8  C    0.000000   0.000000   0.000000   0.000000   0.000000   0.000000
     9  C    0.000000   0.000000   0.000000   0.000000   0.000000   0.000000
    10  C    0.000000   0.000000   0.000000   0.000000   0.000000   0.000000
    11  H    0.000000   0.000000   0.000000   0.000000   0.000000   0.000000
    12  H    0.000000   0.000000   0.000000   0.000000   0.000000   0.000000
    13  H    0.000000   0.000000   0.000000   0.000000   0.000000   0.000000
    14  H    0.000000   0.000000   0.000000   0.000000   0.000000   0.000000
               7          8          9         10         11         12
     1  C    0.000000   0.000000   0.000000   0.000000   0.000000   0.000000
     2  O    0.000000   0.000000   0.000000   0.000000   0.000000   0.000000
     3  N    0.000000   0.000000   0.000000   0.000000   0.000000   0.000000
     4  C    0.000000   0.000000   0.000000   0.000000   0.000000   0.000000
     5  C    0.000000   0.000000   0.000000   0.000000   0.000000   0.000000
     6  O    0.000000   0.000000   0.000000   0.000000   0.000000   0.000000
     7  N    5.288956   0.000000   0.000000   0.000000   0.000000   0.000000
     8  C    0.000000   3.268920   0.000000   0.000000   0.000000   0.000000
     9  C    0.000000   0.000000   4.388390   0.000000   0.000000   0.000000
    10  C    0.000000   0.000000   0.000000   2.855364   0.000000   0.000000
    11  H    0.000000   0.000000   0.000000   0.000000   0.796748   0.000000
    12  H    0.000000   0.000000   0.000000   0.000000   0.000000   1.514525
    13  H    0.000000   0.000000   0.000000   0.000000   0.000000   0.000000
    14  H    0.000000   0.000000   0.000000   0.000000   0.000000   0.000000
              13         14
     1  C    0.000000   0.000000
     2  O    0.000000   0.000000
     3  N    0.000000   0.000000
     4  C    0.000000   0.000000
     5  C    0.000000   0.000000
     6  O    0.000000   0.000000
     7  N    0.000000   0.000000
     8  C    0.000000   0.000000
     9  C    0.000000   0.000000
    10  C    0.000000   0.000000
    11  H    0.000000   0.000000
    12  H    0.000000   0.000000
    13  H    0.752951   0.000000
    14  H    0.000000   1.098004
 Mulliken charges:
               1
     1  C    0.334665
     2  O    0.120782
     3  N   -0.046118
     4  C    0.267758
     5  C    0.283542
     6  O    0.003229
     7  N   -0.288956
     8  C    0.731080
     9  C   -0.388390
    10  C    1.144636
    11  H    0.203252
    12  H   -0.514525
    13  H    0.247049
    14  H   -0.098004
 Sum of Mulliken charges =   2.00000
 Mulliken charges with hydrogens summed into heavy atoms:
               1
     1  C    0.537918
     2  O    0.120782
     3  N   -0.046118
     4  C    0.267758
     5  C    0.283542
     6  O    0.003229
     7  N   -0.288956
     8  C    0.880124
     9  C   -0.902915
    10  C    1.144636
 Charge=              2.0000 electrons
 Dipole moment (field-independent basis, Debye):
    X=              8.9412    Y=             -2.9963    Z=             66.9660  Tot=             67.6267
 N-N= 2.756656726128D+02 E-N=-3.944314874494D+02  KE=-9.764334191572D+01
 Leave Link  601 at Wed Jan  5 15:23:19 2022, MaxMem=   402653184 cpu:               1.3 elap:               0.0
 (Enter /work/01114/jfonner/frontera/gaussian/16rC.01/g16/l9999.exe)

 Test job not archived.
 1\1\GINC-C208-022\SP\RPM6\ZDO\C6H4N2O2(2+)\SA748948\05-Jan-2022\0\\#p 
 int=acc2e=12 pm6 charge nosymm int=acc2e=12 scf=(noincfock,novaracc,fe
 rmi,maxcycle=128,ndamp=64,xqc)\\Atom number=14\\2,1\C,0,-1.636,0.175,4
 .6\O,0,-1.744,1.356,4.862\N,0,-1.095,-0.7,5.415\C,0,-0.572,-0.311,6.66
 9\C,0,0.84,-0.854,6.792\O,0,1.027,-2.022,6.72\N,0,1.81,0.002,7.023\C,0
 ,3.191,-0.429,7.101\C,0,-1.411,-0.913,7.797\C,0,-0.727,-0.645,9.123\H,
 0,-1.9392756,-0.22723172,3.6560013\H,0,-2.40237511,-0.5104546,7.791290
 14\H,0,3.70315062,0.05967705,7.9033693\H,0,3.66073376,-0.20380411,6.16
 636798\\Version=ES64L-G16RevC.01\HF=-0.5949007\RMSD=6.129e-10\Dipole=3
 .4394698,0.3537877,1.7401946\PG=C01 [X(C6H4N2O2)]\\@


 THOUGH I SPEAK WITH THE TONGUES OF MEN AND OF ANGELS, 
 AND HAVE NOT LOVE,
 I AM BECOME AS SOUNDING BRASS, A TINKLING CYMBAL.
 AND THOUGH I HAVE THE GIFT OF PROPHECY,
 AND UNDERSTAND ALL MYSTERIES, AND ALL KNOWLEDGE.
 AND THOUGH I HAVE ALL FAITH, SO THAT I COULD REMOVE MOUNTAINS,
 AND HAVE NOT LOVE, I AM NOTHING.
 AND THOUGH I BESTOW ALL MY GOODS TO FEED THE POOR,
 AND THOUGH I GIVE MY BODY TO BE BURNED,
 AND HAVE NOT LOVE IT PROFITETH ME NOTHING.
 LOVE SUFFERETH LONG, AND IS KIND,
 LOVE ENVIETH NOT,
 LOVE VAUNTETH NOT ITSELF, IS NOT PUFFED UP,
 DOTH NOT BEHAVE ITSELF UNSEEMLY, SEEKETH NOT HER OWN,
 IS NOT EASILY PROVOKED, THINKETH NO EVIL,
 REJOICETH NOT IN INIQUITY, BUT REJOICETH IN THE TRUTH,
 BEARETH ALL THINGS, BELIEVETH ALL THINGS,
 HOPETH ALL THINGS, ENDURETH ALL THINGS.
 LOVE NEVER FAILETH, BUT WHETHER THERE BE PROPHECIES, THEY SHALL FAIL, 
 WHETHER THERE BE TONGUES, THEY SHALL CEASE,
 WHETHER THERE BE KNOWLEDGE, IT SHALL VANISH AWAY.
 FOR WE KNOW IN PART, AND WE PROPHESY IN PART.
 BUT WHEN THAT WHICH IS PERFECT IS COME, THEN THAT WHICH IS IN PART 
 SHALL BE DONE AWAY. 
 WHEN I WAS A CHILD, I SPAKE AS A CHILD, I UNDERSTOOD AS A CHILD, 
 I THOUGHT AS A CHILD.
 BUT WHEN I BECAME A MAN, I PUT AWAY CHILDISH THINGS.
 FOR NOW WE SEE THROUGH A GLASS, DARKLY, BUT THEN FACE TO FACE.
 NOW I KNOW IN PART. BUT THEN SHALL I KNOW EVEN AS ALSO I AM KNOWN.
 AND NOW ABIDETH FAITH, HOPE AND LOVE, THESE THREE.
 BUT THE GREATEST OF THESE IS LOVE.

                     I CORINTHIANS 13
 Job cpu time:       0 days  0 hours  0 minutes 51.1 seconds.
 Elapsed time:       0 days  0 hours  0 minutes  1.3 seconds.
 File lengths (MBytes):  RWF=      6 Int=      0 D2E=      0 Chk=      2 Scr=      1
 Normal termination of Gaussian 16 at Wed Jan  5 15:23:19 2022.
