Atom number=14                                                          
SP        RPM6                                                        ZDO                 
Number of atoms                            I               14
Info1-9                                    I   N=           9
          81          80           0           0           0         111
           1           8        2302
Full Title                                 C   N=           2
Atom number=14          
Route                                      C   N=           3
#p int=acc2e=12 pm6 charge nosymm   
Charge                                     I                2
Multiplicity                               I                1
Number of electrons                        I               48
Number of alpha electrons                  I               24
Number of beta electrons                   I               24
Number of basis functions                  I               44
Number of independent functions            I               44
Number of point charges in /Mol/           I                0
Number of translation vectors              I                0
Atomic numbers                             I   N=          14
           6           8           7           6           6           8
           7           6           6           6           1           1
           1           1
Nuclear charges                            R   N=          14
  4.00000000E+00  6.00000000E+00  5.00000000E+00  4.00000000E+00  4.00000000E+00
  6.00000000E+00  5.00000000E+00  4.00000000E+00  4.00000000E+00  4.00000000E+00
  1.00000000E+00  1.00000000E+00  1.00000000E+00  1.00000000E+00
Current cartesian coordinates              R   N=          42
  8.07102028E+00  1.54390624E+00  2.13463463E+01  8.23731618E+00  3.84181321E+00
  2.14805169E+01  6.59892363E+00  1.96531517E-01  2.28146635E+01  4.88494203E+00
  1.27934459E+00  2.47270663E+01  5.68051673E+00  8.88171279E-02  2.71383569E+01
  5.58980988E+00 -2.20908984E+00  2.74293747E+01  6.57813664E+00  1.67618707E+00
  2.88410001E+01  7.86692986E+00  7.40772641E-01  3.10708769E+01  2.12972134E+00
  6.23609621E-01  2.42395170E+01  4.68652079E-01  1.27556513E+00  2.65279753E+01
  9.15376630E+00  4.59799978E-01  2.00269196E+01  1.51698277E+00  1.59344086E+00
  2.25744372E+01  6.87909841E+00  1.50670961E+00  3.26602295E+01  9.83429712E+00
  1.20262017E+00  3.10025029E+01
Number of symbols in /Mol/                 I                0
Int Atom Types                             I   N=          14
           0           0           0           0           0           0
           0           0           0           0           0           0
           0           0
Force Field                                I                0
Atom Types                                 C   N=          14
                                                            
                                                            
                                                
MM charges                                 R   N=          14
  0.00000000E+00  0.00000000E+00  0.00000000E+00  0.00000000E+00  0.00000000E+00
  0.00000000E+00  0.00000000E+00  0.00000000E+00  0.00000000E+00  0.00000000E+00
  0.00000000E+00  0.00000000E+00  0.00000000E+00  0.00000000E+00
Integer atomic weights                     I   N=          14
          12          16          14          12          12          16
          14          12          12          12           1           1
           1           1
Real atomic weights                        R   N=          14
  1.20000000E+01  1.59949146E+01  1.40030740E+01  1.20000000E+01  1.20000000E+01
  1.59949146E+01  1.40030740E+01  1.20000000E+01  1.20000000E+01  1.20000000E+01
  1.00782504E+00  1.00782504E+00  1.00782504E+00  1.00782504E+00
Atom fragment info                         I   N=          14
           0           0           0           0           0           0
           0           0           0           0           0           0
           0           0
Atom residue num                           I   N=          14
           0           0           0           0           0           0
           0           0           0           0           0           0
           0           0
Nuclear spins                              I   N=          14
           0           0           2           0           0           0
           2           0           0           0           1           1
           1           1
Nuclear ZEff                               R   N=          14
 -3.90000000E+00 -6.00000000E+00 -4.90000000E+00 -3.90000000E+00 -3.90000000E+00
 -6.00000000E+00 -4.90000000E+00 -3.90000000E+00 -3.90000000E+00 -3.90000000E+00
 -1.00000000E+00 -1.00000000E+00 -1.00000000E+00 -1.00000000E+00
Nuclear ZNuc                               R   N=          14
  6.00000000E+00  8.00000000E+00  7.00000000E+00  6.00000000E+00  6.00000000E+00
  8.00000000E+00  7.00000000E+00  6.00000000E+00  6.00000000E+00  6.00000000E+00
  1.00000000E+00  1.00000000E+00  1.00000000E+00  1.00000000E+00
Nuclear QMom                               R   N=          14
  0.00000000E+00  0.00000000E+00  2.04400000E+00  0.00000000E+00  0.00000000E+00
  0.00000000E+00  2.04400000E+00  0.00000000E+00  0.00000000E+00  0.00000000E+00
  0.00000000E+00  0.00000000E+00  0.00000000E+00  0.00000000E+00
Nuclear GFac                               R   N=          14
  0.00000000E+00  0.00000000E+00  4.03761000E-01  0.00000000E+00  0.00000000E+00
  0.00000000E+00  4.03761000E-01  0.00000000E+00  0.00000000E+00  0.00000000E+00
  2.79284600E+00  2.79284600E+00  2.79284600E+00  2.79284600E+00
MicOpt                                     I   N=          14
          -1          -1          -1          -1          -1          -1
          -1          -1          -1          -1          -1          -1
          -1          -1
Number of residues                         I                0
Number of secondary structures             I                0
Number of contracted shells                I               14
Number of primitive shells                 I               84
Pure/Cartesian d shells                    I                0
Pure/Cartesian f shells                    I                0
Highest angular momentum                   I                1
Largest degree of contraction              I                6
Shell types                                I   N=          14
          -1          -1          -1          -1          -1          -1
          -1          -1          -1          -1           0           0
           0           0
Number of primitives per shell             I   N=          14
           6           6           6           6           6           6
           6           6           6           6           6           6
           6           6
Shell to atom map                          I   N=          14
           1           2           3           4           5           6
           7           8           9          10          11          12
          13          14
Primitive exponents                        R   N=          84
  1.14476344E+01  3.29633588E+00  1.29653143E+00  5.92558930E-01  2.94896438E-01
  1.51447622E-01  8.02643074E+01  2.31120341E+01  9.09054165E+00  4.15468650E+00
  2.06764625E+00  1.06186467E+00  1.54719623E+01  4.45513742E+00  1.75231709E+00
  8.00868468E-01  3.98565014E-01  2.04687870E-01  1.14476344E+01  3.29633588E+00
  1.29653143E+00  5.92558930E-01  2.94896438E-01  1.51447622E-01  1.14476344E+01
  3.29633588E+00  1.29653143E+00  5.92558930E-01  2.94896438E-01  1.51447622E-01
  8.02643074E+01  2.31120341E+01  9.09054165E+00  4.15468650E+00  2.06764625E+00
  1.06186467E+00  1.54719623E+01  4.45513742E+00  1.75231709E+00  8.00868468E-01
  3.98565014E-01  2.04687870E-01  1.14476344E+01  3.29633588E+00  1.29653143E+00
  5.92558930E-01  2.94896438E-01  1.51447622E-01  1.14476344E+01  3.29633588E+00
  1.29653143E+00  5.92558930E-01  2.94896438E-01  1.51447622E-01  1.14476344E+01
  3.29633588E+00  1.29653143E+00  5.92558930E-01  2.94896438E-01  1.51447622E-01
  4.39461478E+00  1.26542531E+00  4.97723458E-01  2.27476537E-01  1.13207340E-01
  5.81389949E-02  4.39461478E+00  1.26542531E+00  4.97723458E-01  2.27476537E-01
  1.13207340E-01  5.81389949E-02  4.39461478E+00  1.26542531E+00  4.97723458E-01
  2.27476537E-01  1.13207340E-01  5.81389949E-02  4.39461478E+00  1.26542531E+00
  4.97723458E-01  2.27476537E-01  1.13207340E-01  5.81389949E-02
Contraction coefficients                   R   N=          84
 -9.73739553E-03 -7.26587678E-02 -1.71615520E-01  1.28977624E-01  7.28861451E-01
  3.01331742E-01 -9.73739553E-03 -7.26587678E-02 -1.71615520E-01  1.28977624E-01
  7.28861451E-01  3.01331742E-01 -9.73739553E-03 -7.26587678E-02 -1.71615520E-01
  1.28977624E-01  7.28861451E-01  3.01331742E-01 -9.73739553E-03 -7.26587678E-02
 -1.71615520E-01  1.28977624E-01  7.28861451E-01  3.01331742E-01 -9.73739553E-03
 -7.26587678E-02 -1.71615520E-01  1.28977624E-01  7.28861451E-01  3.01331742E-01
 -9.73739553E-03 -7.26587678E-02 -1.71615520E-01  1.28977624E-01  7.28861451E-01
  3.01331742E-01 -9.73739553E-03 -7.26587678E-02 -1.71615520E-01  1.28977624E-01
  7.28861451E-01  3.01331742E-01 -9.73739553E-03 -7.26587678E-02 -1.71615520E-01
  1.28977624E-01  7.28861451E-01  3.01331742E-01 -9.73739553E-03 -7.26587678E-02
 -1.71615520E-01  1.28977624E-01  7.28861451E-01  3.01331742E-01 -9.73739553E-03
 -7.26587678E-02 -1.71615520E-01  1.28977624E-01  7.28861451E-01  3.01331742E-01
 -9.73739553E-03 -7.26587678E-02 -1.71615520E-01  1.28977624E-01  7.28861451E-01
  3.01331742E-01 -9.73739553E-03 -7.26587678E-02 -1.71615520E-01  1.28977624E-01
  7.28861451E-01  3.01331742E-01 -9.73739553E-03 -7.26587678E-02 -1.71615520E-01
  1.28977624E-01  7.28861451E-01  3.01331742E-01 -9.73739553E-03 -7.26587678E-02
 -1.71615520E-01  1.28977624E-01  7.28861451E-01  3.01331742E-01
P(S=P) Contraction coefficients            R   N=          84
 -8.10494336E-03 -1.71547892E-02  7.36978576E-02  3.96514999E-01  4.97808488E-01
  1.17482582E-01 -8.10494336E-03 -1.71547892E-02  7.36978576E-02  3.96514999E-01
  4.97808488E-01  1.17482582E-01 -8.10494336E-03 -1.71547892E-02  7.36978576E-02
  3.96514999E-01  4.97808488E-01  1.17482582E-01 -8.10494336E-03 -1.71547892E-02
  7.36978576E-02  3.96514999E-01  4.97808488E-01  1.17482582E-01 -8.10494336E-03
 -1.71547892E-02  7.36978576E-02  3.96514999E-01  4.97808488E-01  1.17482582E-01
 -8.10494336E-03 -1.71547892E-02  7.36978576E-02  3.96514999E-01  4.97808488E-01
  1.17482582E-01 -8.10494336E-03 -1.71547892E-02  7.36978576E-02  3.96514999E-01
  4.97808488E-01  1.17482582E-01 -8.10494336E-03 -1.71547892E-02  7.36978576E-02
  3.96514999E-01  4.97808488E-01  1.17482582E-01 -8.10494336E-03 -1.71547892E-02
  7.36978576E-02  3.96514999E-01  4.97808488E-01  1.17482582E-01 -8.10494336E-03
 -1.71547892E-02  7.36978576E-02  3.96514999E-01  4.97808488E-01  1.17482582E-01
  0.00000000E+00  0.00000000E+00  0.00000000E+00  0.00000000E+00  0.00000000E+00
  0.00000000E+00  0.00000000E+00  0.00000000E+00  0.00000000E+00  0.00000000E+00
  0.00000000E+00  0.00000000E+00  0.00000000E+00  0.00000000E+00  0.00000000E+00
  0.00000000E+00  0.00000000E+00  0.00000000E+00  0.00000000E+00  0.00000000E+00
  0.00000000E+00  0.00000000E+00  0.00000000E+00  0.00000000E+00
Coordinates of each shell                  R   N=          42
  8.07102028E+00  1.54390624E+00  2.13463463E+01  8.23731618E+00  3.84181321E+00
  2.14805169E+01  6.59892363E+00  1.96531517E-01  2.28146635E+01  4.88494203E+00
  1.27934459E+00  2.47270663E+01  5.68051673E+00  8.88171279E-02  2.71383569E+01
  5.58980988E+00 -2.20908984E+00  2.74293747E+01  6.57813664E+00  1.67618707E+00
  2.88410001E+01  7.86692986E+00  7.40772641E-01  3.10708769E+01  2.12972134E+00
  6.23609621E-01  2.42395170E+01  4.68652079E-01  1.27556513E+00  2.65279753E+01
  9.15376630E+00  4.59799978E-01  2.00269196E+01  1.51698277E+00  1.59344086E+00
  2.25744372E+01  6.87909841E+00  1.50670961E+00  3.26602295E+01  9.83429712E+00
  1.20262017E+00  3.10025029E+01
Num ILSW                                   I              100
ILSW                                       I   N=         100
           0           0           0           0           2           0
           0           0           0           0           0          -1
           5           0           0           0           0           0
           0           0           0           0           0           0
           1           1           0           0           0           0
           0           0      100000           0          -1           0
           0           0           0           0           0           0
           0           0           0          40           0           0
           0 -2000000000           1           0           0           0
           0           0           4          52           0           0
           0           1           0           0           0           0
           0           0           0          14           0           1
           0           0           0           0           0           0
           0           0           0           0           0           0
           0           0           0           0           0           0
           0           0           0           0           0           0
           0           0           0           0
Num RLSW                                   I               52
RLSW                                       R   N=          52
  1.00000000E+00  1.00000000E+00  1.00000000E+00  1.00000000E+00  1.00000000E+00
  0.00000000E+00  0.00000000E+00  1.00000000E+00  0.00000000E+00  0.00000000E+00
  0.00000000E+00  0.00000000E+00  1.00000000E+00  0.00000000E+00  0.00000000E+00
  0.00000000E+00  0.00000000E+00  1.00000000E+00  0.00000000E+00  0.00000000E+00
  0.00000000E+00  0.00000000E+00  1.00000000E+00  0.00000000E+00  0.00000000E+00
  0.00000000E+00  0.00000000E+00  1.00000000E+00  0.00000000E+00  0.00000000E+00
  0.00000000E+00  0.00000000E+00  1.00000000E+00  0.00000000E+00  0.00000000E+00
  0.00000000E+00  0.00000000E+00  0.00000000E+00  1.00000000E+00  1.00000000E+00
  0.00000000E+00  1.00000000E+00  0.00000000E+00  0.00000000E+00  0.00000000E+00
  0.00000000E+00  0.00000000E+00  0.00000000E+00  0.00000000E+00  0.00000000E+00
  0.00000000E+00  0.00000000E+00
MxBond                                     I                3
NBond                                      I   N=          14
           3           1           2           3           3           1
           2           3           3           1           1           1
           1           1
IBond                                      I   N=          42
           2           3          11           1           0           0
           1           4           0           3           5           9
           4           6           7           5           0           0
           5           8           0           7          13          14
           4          10          12           9           0           0
           1           0           0           9           0           0
           8           0           0           8           0           0
RBond                                      R   N=          42
  2.00000000E+00  1.50000000E+00  1.00000000E+00  2.00000000E+00  0.00000000E+00
  0.00000000E+00  1.50000000E+00  1.00000000E+00  0.00000000E+00  1.00000000E+00
  1.00000000E+00  1.00000000E+00  1.00000000E+00  2.00000000E+00  1.50000000E+00
  2.00000000E+00  0.00000000E+00  0.00000000E+00  1.50000000E+00  1.00000000E+00
  0.00000000E+00  1.00000000E+00  1.00000000E+00  1.00000000E+00  1.00000000E+00
  1.00000000E+00  1.00000000E+00  1.00000000E+00  0.00000000E+00  0.00000000E+00
  1.00000000E+00  0.00000000E+00  0.00000000E+00  1.00000000E+00  0.00000000E+00
  0.00000000E+00  1.00000000E+00  0.00000000E+00  0.00000000E+00  1.00000000E+00
  0.00000000E+00  0.00000000E+00
Virial Ratio                               R      9.879985876406204E-01
SCF Energy                                 R     -1.174893611945492E+00
Total Energy                               R     -1.174893611945492E+00
RMS Density                                R      9.126045897793709E-09
Job Status                                 I                1
Nuclear derivative order                   I                0
External E-field                           R   N=          35
  0.00000000E+00  0.00000000E+00  0.00000000E+00  0.00000000E+00  0.00000000E+00
  0.00000000E+00  0.00000000E+00  0.00000000E+00  0.00000000E+00  0.00000000E+00
  0.00000000E+00  0.00000000E+00  0.00000000E+00  0.00000000E+00  0.00000000E+00
  0.00000000E+00  0.00000000E+00  0.00000000E+00  0.00000000E+00  0.00000000E+00
  0.00000000E+00  0.00000000E+00  0.00000000E+00  0.00000000E+00  0.00000000E+00
  0.00000000E+00  0.00000000E+00  0.00000000E+00  0.00000000E+00  0.00000000E+00
  0.00000000E+00  0.00000000E+00  0.00000000E+00  0.00000000E+00  0.00000000E+00
IOpCl                                      I                0
IROHF                                      I                0
Alpha Orbital Energies                     R   N=          44
 -1.68300193E+00 -1.64325963E+00 -1.57907675E+00 -1.56626722E+00 -1.51520466E+00
 -1.42766694E+00 -1.33746159E+00 -1.27545961E+00 -1.20668104E+00 -1.13968209E+00
 -1.08396923E+00 -1.06624164E+00 -1.03696428E+00 -1.02689790E+00 -1.01889972E+00
 -9.66573000E-01 -9.53979581E-01 -9.50257717E-01 -9.10793162E-01 -8.90634385E-01
 -8.58615287E-01 -8.39207917E-01 -7.93197611E-01 -7.70354919E-01 -6.17489113E-01
 -5.35840950E-01 -5.26122809E-01 -4.86724053E-01 -4.77102243E-01 -4.64823638E-01
 -4.37140160E-01 -3.89642098E-01 -3.86250452E-01 -3.77408072E-01 -3.63886352E-01
 -3.55434377E-01 -3.49341863E-01 -3.14498965E-01 -2.83160775E-01 -2.79783816E-01
 -2.63940790E-01 -2.41158665E-01 -2.31577586E-01 -1.87849723E-01
Alpha MO coefficients                      R   N=        1936
  5.66849790E-02 -1.85243499E-02  5.22940320E-03  2.63421870E-02  3.69559778E-02
 -6.00790880E-03 -2.56681040E-02  4.87405867E-03  1.24578605E-01 -1.68709918E-02
  2.96439288E-02  4.20193410E-02  1.93220801E-01  3.40572671E-02 -7.47074096E-02
  7.14813712E-02  5.38213972E-01  2.28768974E-02 -1.71713400E-01  7.89882082E-02
  5.63443771E-01  1.85926780E-02  2.94684002E-01 -2.43847864E-02  3.51592022E-01
 -3.19519715E-02 -1.69987240E-01 -6.36985611E-02  1.21105193E-01 -4.52025741E-02
  4.89249316E-03 -8.09937981E-02  7.66242132E-02  4.46198997E-02  3.94293038E-03
  2.38565678E-02  2.86797550E-02  2.15815419E-02 -5.03391094E-03 -9.83316943E-03
  1.35706230E-02  3.92692947E-02  3.57799274E-02  3.29494637E-02  5.13068412E-01
 -7.98384346E-02  1.48108334E-01  1.17075736E-01  4.95563469E-01 -4.19894557E-02
 -2.73934866E-01  1.21079575E-02  4.60317300E-01  5.92211453E-02  1.87100672E-01
 -5.21958182E-02  1.79705660E-01  6.67325107E-02 -1.55467650E-02 -1.00326383E-01
 -4.60236873E-02 -9.02143925E-03  6.21813017E-02 -7.55089503E-02 -1.29191986E-01
 -4.15016040E-03 -4.76344082E-02 -1.04022179E-02 -6.44768267E-02 -1.67891966E-04
  3.33201747E-02 -9.39885766E-03 -3.47916959E-02  1.12961293E-02 -2.69089782E-03
  1.77904357E-02  7.21422521E-02  3.38583700E-02  1.72338225E-02 -1.63293379E-02
  1.40348958E-02  8.14919721E-03 -1.49316095E-04 -1.09020349E-02  1.47463293E-01
  6.98974055E-02 -1.16612371E-02 -9.57761091E-03 -1.67558468E-02 -1.66563623E-03
 -1.08323545E-02  2.07594857E-03 -2.81678060E-02  7.78010594E-04  1.15578498E-02
  2.36432350E-03 -2.78497498E-03 -1.66575486E-03  6.72884485E-03  8.52933401E-03
  6.22333434E-02  2.07308783E-02  2.62809434E-02  5.31952920E-02  1.23928980E-01
  1.03421203E-01  3.89501979E-01  1.34418102E-01 -5.25996910E-01  1.97827742E-02
 -8.00479351E-02  5.56440167E-02  6.10550877E-01  2.56954229E-03 -1.50000736E-01
 -2.12399979E-02  2.70362501E-01 -6.89182626E-02  4.91537944E-02 -1.26113220E-01
  9.96156250E-03  3.53344905E-03  1.14445526E-02  5.52794984E-03  8.74065488E-03
  5.73611613E-03  1.95841975E-03 -1.57644510E-03 -6.08008353E-03  7.91555771E-03
  9.43579720E-02  8.37792917E-02  1.09710515E-01  8.43199881E-02  2.28571857E-01
 -5.28375353E-02  4.28898524E-01  6.53070844E-03 -1.37035145E-01 -2.28413121E-02
 -3.17779368E-01  8.75717370E-02 -4.67686974E-02 -7.27223752E-02 -3.90890997E-01
  5.31693665E-02  7.14477439E-02  6.11412012E-02 -4.21596939E-02  6.53861798E-02
 -7.79010406E-02  1.61705005E-01  1.31746234E-01  2.18447953E-02  2.01239257E-02
  4.04051917E-02  1.24174205E-01  2.61486480E-02 -4.94307313E-02  5.24074577E-02
  9.92429140E-02 -2.24404124E-02  1.37214021E-02 -3.81622966E-02 -4.03686633E-01
 -5.68894617E-02 -8.71258022E-02  1.42549770E-02 -1.61258476E-01 -6.63176899E-02
  9.36845314E-03  8.28700260E-02  3.36292996E-02 -3.68462597E-01  3.59247261E-02
  3.09286582E-02  1.07911715E-01 -1.17127326E-01 -2.93233184E-01  1.01077632E-01
 -4.23333696E-01 -1.80845413E-02  6.33748025E-02  3.29224039E-02  4.58183340E-01
  8.37227871E-02  9.19814031E-02 -5.44520590E-02 -3.62743433E-02  2.03983997E-01
 -1.95317769E-02 -6.99614351E-02 -1.26080601E-02  4.54931654E-02 -1.39153265E-02
 -1.78927435E-03  1.34164234E-02  1.64726771E-02 -2.35934516E-03 -4.10130348E-04
  6.25242682E-03  1.38262473E-02 -3.27261410E-03  6.04910384E-03  1.26517502E-02
  2.12934035E-05  1.80397878E-03 -4.67886652E-03 -4.02740379E-01  5.89088870E-02
 -1.00912518E-01  6.93938970E-03 -2.18412958E-01 -6.91019702E-02  1.13754476E-02
  1.02257788E-01  5.81603052E-02 -4.14113648E-01  3.82607816E-03  5.20478594E-03
  1.66377034E-01 -4.45450166E-02 -1.45356845E-01  1.84970102E-02 -1.63620566E-01
 -9.99874596E-03 -2.40929704E-02  3.76164122E-03  9.82229243E-02  1.22788440E-01
  3.04547048E-02 -1.95341321E-01 -3.17935045E-01 -8.56214362E-02  8.07610983E-02
 -1.63915043E-01 -3.06889525E-01  5.32850103E-02 -1.85816053E-01  1.79036931E-01
  2.06313984E-01  2.50239101E-02 -7.07097147E-02  6.57030525E-02  1.07447372E-01
  1.44241079E-01 -1.38490364E-02  2.84883328E-01  3.75349869E-01 -3.26264229E-02
  6.75089864E-02 -5.09636962E-02  1.47703549E-01 -1.62024103E-01  6.32343116E-02
 -1.07756673E-01  9.22511617E-02 -1.25403385E-03 -4.16114525E-04 -5.69922569E-02
  9.77268770E-02  3.25480336E-01  1.63817369E-01  1.38209980E-01 -2.62377224E-01
 -1.97429992E-02  1.59582523E-01  2.74798470E-02  1.72076933E-01 -8.73157911E-03
  7.73647639E-02  1.46916261E-02  7.64814148E-02 -2.40832807E-01  3.48402380E-03
  2.47462067E-01  2.95936203E-01  4.58911615E-02 -9.39287778E-02 -1.32282162E-01
 -1.44397741E-01 -5.07470115E-02 -1.00281259E-01 -2.04274019E-01  3.92683043E-02
 -1.89448477E-02 -5.55479861E-02 -7.02874746E-02 -7.15416855E-02  1.78833019E-01
  6.98732603E-02  2.79288335E-01  4.55530909E-01  1.80632717E-02  8.49952441E-02
  2.74116109E-02 -4.01688342E-02  1.89225642E-01 -3.60222108E-02 -8.33588370E-03
 -1.49627719E-01 -1.08071619E-02  3.79569684E-03  4.20064078E-02 -1.91036488E-01
 -1.34075371E-01  2.26869680E-01  1.93935063E-01  1.35364239E-01  4.19804891E-02
 -6.68905450E-02 -3.46426619E-02 -7.56391935E-02  1.69720999E-02 -5.19152197E-02
 -1.92624125E-02 -5.82261178E-02  1.06877631E-01 -2.14063924E-02 -7.65413459E-02
  5.74137540E-02 -1.13804835E-01 -1.50900733E-02  1.64595723E-01  1.46899386E-02
 -1.25963408E-01 -9.67726788E-03 -1.08235864E-01 -3.13068494E-02 -6.01514825E-02
  1.02260296E-02 -4.27301957E-02 -7.59485978E-02  2.74859711E-02  4.21157431E-02
  8.98469553E-02  1.77453015E-01  1.93287448E-02  3.02730035E-02  4.78888852E-02
  1.35239952E-01 -4.63337872E-02 -2.98433020E-02  4.58980868E-01  5.75983097E-01
  1.03075485E-01 -3.62086729E-02 -6.81297012E-02  1.16750349E-01 -4.51008865E-01
  1.02932871E-01  8.15149203E-02 -2.94008804E-01 -1.79949017E-01  1.04812944E-01
  1.89462047E-01  1.86333098E-01 -6.94291925E-02  1.53108708E-01  9.32294550E-02
  2.62086230E-01 -1.15318353E-01  6.27031571E-02  1.08018624E-01 -1.41996229E-01
  1.47680958E-01  2.18226672E-02 -2.24902146E-01 -1.52273407E-01  1.36291000E-01
 -5.03299605E-03  1.87051398E-01  1.08762890E-01  6.85838938E-02 -9.70336337E-02
  9.63804450E-02  1.43227161E-01 -5.60508371E-03 -3.84309405E-02 -2.60230283E-02
 -1.99265220E-01 -5.54873035E-02 -2.03697319E-02 -1.05868378E-01  1.08851865E-03
 -2.11418677E-01  3.55917514E-04  1.29444608E-01  4.10520513E-01 -4.48620334E-04
 -1.02280755E-02 -4.08301932E-02 -3.33917259E-01 -1.04482524E-01 -1.31078948E-01
 -1.07373559E-01  7.21150167E-02  2.41703778E-02  1.50491890E-04 -1.12463192E-01
 -6.36174570E-02  6.27255568E-03 -5.50233015E-02 -6.14015242E-02 -7.59698373E-02
 -1.30289364E-01  2.64339100E-02 -7.55260255E-02  2.16894520E-01 -3.16705651E-01
  5.72183520E-02 -1.72155718E-01 -2.72024082E-01 -6.38909197E-02  8.27411914E-02
  1.32743219E-01  2.72006871E-01 -5.93662216E-02 -2.95746553E-01  1.13464315E-01
  2.75933553E-01 -9.96340850E-03  5.39132355E-02  1.03708336E-01 -2.19815637E-01
 -1.37957333E-01  3.22885697E-02 -1.76233694E-01  1.55037498E-01  3.56069549E-01
  1.68356154E-02  9.51250819E-02 -1.59603142E-01  6.47187084E-02  5.64906786E-05
  9.28906779E-03  1.00659536E-01 -2.17172786E-01 -1.44343570E-01 -1.53269019E-01
  8.70528862E-02  2.79734349E-01  1.91655639E-02 -1.85906652E-01 -1.09877098E-01
  1.46239109E-01 -1.20801153E-01 -1.01350937E-01 -4.30836623E-02 -7.66899478E-02
 -6.79145364E-02  2.91925097E-01  7.16221184E-02  3.21662961E-01 -5.62264590E-02
  1.46129086E-02 -8.86517752E-02  2.46587804E-01  1.00771289E-01 -2.76316543E-01
  1.96528147E-01  1.73226017E-01 -2.73885670E-01 -1.53913307E-01  1.40718787E-01
  2.26739993E-01  1.12503188E-01 -5.11082750E-02 -6.12820151E-02  6.03049417E-02
  4.39407498E-02 -1.38116659E-01 -1.19252587E-01 -1.93410616E-01 -5.31199169E-03
 -5.62872613E-02  1.85649226E-01 -6.74327573E-02  1.25260433E-02  1.19655049E-02
  2.44121955E-01  8.90721681E-02 -1.10547698E-01  1.01582959E-02  1.66426154E-02
  1.45491920E-01 -2.15165583E-02 -2.29015323E-01  1.30759311E-02  8.91318623E-02
  3.91931222E-03 -1.42154743E-01  1.02111316E-01 -2.16213308E-01 -1.51220147E-01
  8.65191968E-02 -7.58145372E-02 -5.07116851E-02 -1.76492965E-01 -2.62186417E-01
  2.16209987E-02  8.81386938E-02 -3.41730939E-01  1.05334689E-01 -3.52868520E-01
  1.01276907E-01  4.16625221E-01 -1.21920172E-02 -4.42772166E-02  1.31413656E-01
 -1.72773833E-01  2.09462551E-01 -9.91469113E-02 -1.09477683E-01 -3.29244991E-02
 -2.27137920E-01  7.21900510E-02  5.92047357E-02 -8.36124330E-02  1.17411384E-02
  4.61473997E-02 -4.37905736E-03 -2.36902914E-02  9.96648502E-04  1.89839356E-01
 -7.01637146E-02 -1.41605176E-01 -9.96976743E-02 -5.10710299E-02 -2.74691595E-02
 -1.17088108E-01  1.38495169E-01  1.54107051E-01  1.13603293E-02  1.67949199E-01
  1.01731016E-01  6.55753329E-02  2.35814253E-01 -1.11818789E-01 -6.61842020E-02
 -9.28923888E-02  1.10851015E-02 -1.03855853E-01  2.70192191E-01 -5.65525590E-03
 -2.50552637E-01 -7.80849440E-02 -3.07368698E-01 -4.21114670E-02 -2.18363762E-01
  2.72132541E-02 -2.69957118E-01  2.35631467E-01  1.26048515E-01  1.94694614E-01
  3.21114993E-01 -1.60448035E-01 -2.26008029E-01  1.37877627E-01 -2.52965598E-01
 -1.09286634E-02 -8.74568466E-02 -6.35378575E-02 -5.11007731E-03 -8.85189366E-02
  9.86844189E-03 -2.63727434E-02 -2.09593412E-02 -6.28285673E-02  8.07112681E-02
 -1.12573751E-01 -1.70978353E-01  7.42168966E-02 -1.87644062E-01  1.82267718E-01
  2.31679098E-01 -2.28945277E-01 -1.65744115E-01 -2.72794681E-01  1.50744030E-01
 -2.42396139E-01  1.01880240E-01  2.54854873E-01 -8.37282674E-02  6.83145219E-02
 -8.04795208E-02  1.22602368E-01  3.78484876E-02  9.47892629E-03  2.37743530E-01
 -1.32553522E-01 -1.50302273E-01 -9.38219986E-02  2.47767983E-01  1.18207300E-01
 -1.28567032E-01 -1.97551133E-02  3.28085572E-01 -4.30054354E-02  2.26502102E-02
 -2.91032278E-02  1.38773532E-01 -1.64627414E-02 -2.68245981E-01  6.14442633E-02
  6.50222528E-02  5.58355556E-02  5.21071355E-02 -7.02817813E-02  3.36355636E-02
  5.35883984E-03 -3.60094526E-02 -2.33798638E-01 -5.03045138E-02 -2.10543329E-01
  6.08882031E-02 -8.61358961E-02 -1.77656291E-03 -2.66306667E-01 -3.18688247E-02
  3.21030149E-01  5.46692727E-02  3.92636078E-01  6.58683119E-03  1.43080221E-01
  1.26046688E-01 -2.12434055E-01 -1.78364765E-01 -5.53621193E-02 -1.95095359E-01
 -5.15603050E-02  8.43105965E-02 -8.85731735E-04  2.76286847E-01  4.60462642E-02
 -6.11566799E-02  5.17707475E-02  2.59283524E-01 -1.00319709E-01 -4.34003979E-02
 -4.73847267E-02  2.03757720E-01 -4.02226107E-02 -2.19003824E-01  5.59881780E-02
  2.97757122E-01 -5.85235273E-02 -7.28127088E-02  1.60352494E-01  9.81649250E-02
 -2.15544860E-02  8.58196678E-02 -1.56582781E-01  7.06397314E-02 -2.82240711E-02
 -7.21902016E-02  8.45598773E-02 -7.70580376E-02 -1.24081097E-01  1.76342221E-01
 -1.55020034E-04  3.54292627E-01  7.88723554E-03  3.21822873E-01 -4.57105610E-02
  3.45540377E-01 -1.09756521E-01  3.18744438E-01  2.39694672E-02  2.53165137E-01
 -4.80496011E-02  3.03008504E-01 -1.52329389E-02  5.63138055E-03 -3.53404583E-02
 -8.00016150E-03 -4.36643152E-02  1.11996874E-01 -1.35988722E-02  8.40848768E-02
  1.78500772E-04  1.78082850E-01 -2.39157489E-02  1.02147974E-01 -5.95059315E-02
 -9.39943765E-02 -9.09546531E-02  4.67099661E-02 -5.58979597E-03 -1.95727922E-01
 -1.77599997E-02  1.05182563E-01  2.22617516E-01 -6.72042638E-02 -7.49387360E-02
  1.45383500E-01 -2.51359896E-01  1.27016253E-01 -8.84245152E-02 -1.86256321E-01
 -2.97206240E-02 -8.28825245E-02  1.23197414E-01 -1.13084766E-01 -7.11974687E-03
  1.19573894E-01 -1.80069295E-01  1.09293554E-01  1.38312426E-01  1.41753427E-01
  2.22752882E-01  1.59268332E-01 -1.03865661E-01  1.69477301E-01  1.06349682E-01
 -2.75364279E-03  2.24424610E-01 -6.64946489E-02  2.58090456E-01  1.53269951E-02
 -7.62440235E-03  9.28041775E-02 -5.08546885E-02 -6.46265286E-04 -2.78191786E-02
  1.89692888E-01  6.26076026E-02  5.99215664E-02 -7.81633007E-02  1.25230371E-02
 -8.35399321E-02  1.21022783E-01 -1.27414755E-02 -1.97756560E-01 -4.07675724E-03