 Entering Gaussian System, Link 0=g16
 Input=4znn_01_gebf_pm6_11.gjf
 Output=4znn_01_gebf_pm6_11.log
 Initial command:
 /work/01114/jfonner/frontera/gaussian/16rC.01/g16/l1.exe "/scratch1/08249/sa748948/lsqc/24846154/Gau-6445.inp" -scrdir="/scratch1/08249/sa748948/lsqc/24846154/"
 Entering Link 1 = /work/01114/jfonner/frontera/gaussian/16rC.01/g16/l1.exe PID=      6446.
  
 Copyright (c) 1988-2019, Gaussian, Inc.  All Rights Reserved.
  
 This is part of the Gaussian(R) 16 program.  It is based on
 the Gaussian(R) 09 system (copyright 2009, Gaussian, Inc.),
 the Gaussian(R) 03 system (copyright 2003, Gaussian, Inc.),
 the Gaussian(R) 98 system (copyright 1998, Gaussian, Inc.),
 the Gaussian(R) 94 system (copyright 1995, Gaussian, Inc.),
 the Gaussian 92(TM) system (copyright 1992, Gaussian, Inc.),
 the Gaussian 90(TM) system (copyright 1990, Gaussian, Inc.),
 the Gaussian 88(TM) system (copyright 1988, Gaussian, Inc.),
 the Gaussian 86(TM) system (copyright 1986, Carnegie Mellon
 University), and the Gaussian 82(TM) system (copyright 1983,
 Carnegie Mellon University). Gaussian is a federally registered
 trademark of Gaussian, Inc.
  
 This software contains proprietary and confidential information,
 including trade secrets, belonging to Gaussian, Inc.
  
 This software is provided under written license and may be
 used, copied, transmitted, or stored only in accord with that
 written license.
  
 The following legend is applicable only to US Government
 contracts under FAR:
  
                    RESTRICTED RIGHTS LEGEND
  
 Use, reproduction and disclosure by the US Government is
 subject to restrictions as set forth in subparagraphs (a)
 and (c) of the Commercial Computer Software - Restricted
 Rights clause in FAR 52.227-19.
  
 Gaussian, Inc.
 340 Quinnipiac St., Bldg. 40, Wallingford CT 06492
  
  
 ---------------------------------------------------------------
 Warning -- This program may not be used in any manner that
 competes with the business of Gaussian, Inc. or will provide
 assistance to any competitor of Gaussian, Inc.  The licensee
 of this program is prohibited from giving any competitor of
 Gaussian, Inc. access to this program.  By using this program,
 the user acknowledges that Gaussian, Inc. is engaged in the
 business of creating and licensing software in the field of
 computational chemistry and represents and warrants to the
 licensee that it is not a competitor of Gaussian, Inc. and that
 it will not use this program in any manner prohibited above.
 ---------------------------------------------------------------
  

 Cite this work as:
 Gaussian 16, Revision C.01,
 M. J. Frisch, G. W. Trucks, H. B. Schlegel, G. E. Scuseria, 
 M. A. Robb, J. R. Cheeseman, G. Scalmani, V. Barone, 
 G. A. Petersson, H. Nakatsuji, X. Li, M. Caricato, A. V. Marenich, 
 J. Bloino, B. G. Janesko, R. Gomperts, B. Mennucci, H. P. Hratchian, 
 J. V. Ortiz, A. F. Izmaylov, J. L. Sonnenberg, D. Williams-Young, 
 F. Ding, F. Lipparini, F. Egidi, J. Goings, B. Peng, A. Petrone, 
 T. Henderson, D. Ranasinghe, V. G. Zakrzewski, J. Gao, N. Rega, 
 G. Zheng, W. Liang, M. Hada, M. Ehara, K. Toyota, R. Fukuda, 
 J. Hasegawa, M. Ishida, T. Nakajima, Y. Honda, O. Kitao, H. Nakai, 
 T. Vreven, K. Throssell, J. A. Montgomery, Jr., J. E. Peralta, 
 F. Ogliaro, M. J. Bearpark, J. J. Heyd, E. N. Brothers, K. N. Kudin, 
 V. N. Staroverov, T. A. Keith, R. Kobayashi, J. Normand, 
 K. Raghavachari, A. P. Rendell, J. C. Burant, S. S. Iyengar, 
 J. Tomasi, M. Cossi, J. M. Millam, M. Klene, C. Adamo, R. Cammi, 
 J. W. Ochterski, R. L. Martin, K. Morokuma, O. Farkas, 
 J. B. Foresman, and D. J. Fox, Gaussian, Inc., Wallingford CT, 2019.
 
 ******************************************
 Gaussian 16:  ES64L-G16RevC.01  3-Jul-2019
                12-Jan-2022 
 ******************************************
 %chk=4znn_01_gebf_pm6_11.chk
 %nproc=56
 Will use up to   56 processors via shared memory.
 %mem=3gb
 ---------------------------------
 #p int=acc2e=12 pm6 charge nosymm
 ---------------------------------
 1/18=10,28=-2,38=1,125=101,172=1/1;
 2/12=2,15=1,17=6,18=5,40=1/2;
 3/5=2,25=1,27=12,41=3900000/1,2,3;
 4/35=1/1;
 5/5=2,35=1,38=5,87=12/2;
 6/7=2,8=2,9=2,10=2,28=1,87=12/1;
 99/5=1,9=1/99;
 Leave Link    1 at Wed Jan 12 16:08:08 2022, MaxMem=   402653184 cpu:               3.0 elap:               0.8
 (Enter /work/01114/jfonner/frontera/gaussian/16rC.01/g16/l101.exe)
 --------------
 Atom number=14
 --------------
 Symbolic Z-matrix:
 Charge =  2 Multiplicity = 1
 c                     4.271     0.817     11.296 
 o                     4.359     2.033     11.367 
 n                     3.492     0.104     12.073 
 c                     2.585     0.677     13.085 
 c                     3.006     0.047     14.361 
 o                     2.958    -1.169     14.515 
 n                     3.481     0.887     15.262 
 c                     4.163     0.392     16.442 
 c                     1.127     0.33      12.827 
 c                     0.248     0.675     14.038 
 h                     4.84396   0.24332   10.59779 
 h                     0.80275   0.84321   11.94588 
 h                     3.64026   0.79732   17.28305 
 h                     5.20409   0.6364    16.40582 
 
 ITRead=  0  0  0  0  0  0  0  0  0  0  0  0  0  0
 MicOpt= -1 -1 -1 -1 -1 -1 -1 -1 -1 -1 -1 -1 -1 -1
 NAtoms=     14 NQM=       14 NQMF=       0 NMMI=      0 NMMIF=      0
                NMic=       0 NMicF=      0.
                    Isotopes and Nuclear Properties:
 (Nuclear quadrupole moments (NQMom) in fm**2, nuclear magnetic moments (NMagM)
  in nuclear magnetons)

  Atom         1           2           3           4           5           6           7           8           9          10
 IAtWgt=          12          16          14          12          12          16          14          12          12          12
 AtmWgt=  12.0000000  15.9949146  14.0030740  12.0000000  12.0000000  15.9949146  14.0030740  12.0000000  12.0000000  12.0000000
 NucSpn=           0           0           2           0           0           0           2           0           0           0
 AtZEff=  -0.0000000  -0.0000000  -0.0000000  -0.0000000  -0.0000000  -0.0000000  -0.0000000  -0.0000000  -0.0000000  -0.0000000
 NQMom=    0.0000000   0.0000000   2.0440000   0.0000000   0.0000000   0.0000000   2.0440000   0.0000000   0.0000000   0.0000000
 NMagM=    0.0000000   0.0000000   0.4037610   0.0000000   0.0000000   0.0000000   0.4037610   0.0000000   0.0000000   0.0000000
 AtZNuc=   6.0000000   8.0000000   7.0000000   6.0000000   6.0000000   8.0000000   7.0000000   6.0000000   6.0000000   6.0000000

  Atom        11          12          13          14
 IAtWgt=           1           1           1           1
 AtmWgt=   1.0078250   1.0078250   1.0078250   1.0078250
 NucSpn=           1           1           1           1
 AtZEff=  -0.0000000  -0.0000000  -0.0000000  -0.0000000
 NQMom=    0.0000000   0.0000000   0.0000000   0.0000000
 NMagM=    2.7928460   2.7928460   2.7928460   2.7928460
 AtZNuc=   1.0000000   1.0000000   1.0000000   1.0000000
 Background charge distribution read from input stream:
 Point Charges:
 XYZ=   -6.8150   -0.6680    1.6070 Q=    0.1840 A=    0.0000 R=    0.0000 C=    0.0000
 XYZ=   -5.7140    0.0020    2.3730 Q=    0.1690 A=    0.0000 R=    0.0000 C=    0.0000
 XYZ=   -4.3570   -0.6730    2.5880 Q=    0.1957 A=    0.0000 R=    0.0000 C=    0.0000
 XYZ=   -4.2120   -1.8700    2.4920 Q=   -0.4612 A=    0.0000 R=    0.0000 C=    0.0000
 XYZ=   -3.3810    0.1250    2.9530 Q=   -0.3003 A=    0.0000 R=    0.0000 C=    0.0000
 XYZ=   -2.0620   -0.3900    3.2740 Q=    0.2639 A=    0.0000 R=    0.0000 C=    0.0000
 XYZ=   -1.6360    0.1750    4.6000 Q=    0.1489 A=    0.0000 R=    0.0000 C=    0.0000
 XYZ=   -1.7440    1.3560    4.8620 Q=   -0.3095 A=    0.0000 R=    0.0000 C=    0.0000
 XYZ=   -0.9930   -0.0450    2.1970 Q=   -1.2213 A=    0.0000 R=    0.0000 C=    0.0000
 XYZ=    0.3900   -0.4880    2.6400 Q=    0.9359 A=    0.0000 R=    0.0000 C=    0.0000
 XYZ=   -1.3780   -0.6620    0.8970 Q=    0.8742 A=    0.0000 R=    0.0000 C=    0.0000
 XYZ=   -1.0950   -0.7000    5.4150 Q=   -0.4278 A=    0.0000 R=    0.0000 C=    0.0000
 XYZ=   -0.5720   -0.3110    6.6690 Q=    0.2444 A=    0.0000 R=    0.0000 C=    0.0000
 XYZ=    0.8400   -0.8540    6.7920 Q=    0.2936 A=    0.0000 R=    0.0000 C=    0.0000
 XYZ=    1.0270   -2.0220    6.7200 Q=   -0.4615 A=    0.0000 R=    0.0000 C=    0.0000
 XYZ=   -1.4110   -0.9130    7.7970 Q=   -1.2093 A=    0.0000 R=    0.0000 C=    0.0000
 XYZ=   -0.7270   -0.6450    9.1230 Q=    0.9838 A=    0.0000 R=    0.0000 C=    0.0000
 XYZ=   -2.8000   -0.3490    7.7890 Q=    0.9737 A=    0.0000 R=    0.0000 C=    0.0000
 XYZ=    1.8100    0.0020    7.0230 Q=   -0.6094 A=    0.0000 R=    0.0000 C=    0.0000
 XYZ=    3.1910   -0.4290    7.1010 Q=   -0.0383 A=    0.0000 R=    0.0000 C=    0.0000
 XYZ=    3.9110    0.2580    8.2290 Q=    0.2652 A=    0.0000 R=    0.0000 C=    0.0000
 XYZ=    4.0640    1.4780    8.2280 Q=   -0.5489 A=    0.0000 R=    0.0000 C=    0.0000
 XYZ=    3.8710   -0.1030    5.7480 Q=    0.4467 A=    0.0000 R=    0.0000 C=    0.0000
 XYZ=    5.2470   -0.6430    5.5810 Q=   -0.4177 A=    0.0000 R=    0.0000 C=    0.0000
 XYZ=    5.8610   -0.6890    4.3530 Q=   -0.2968 A=    0.0000 R=    0.0000 C=    0.0000
 XYZ=    6.1080   -1.1970    6.4480 Q=    0.2630 A=    0.0000 R=    0.0000 C=    0.0000
 XYZ=    7.0590   -1.2270    4.4820 Q=    0.6103 A=    0.0000 R=    0.0000 C=    0.0000
 XYZ=    7.2390   -1.5230    5.7510 Q=   -0.3347 A=    0.0000 R=    0.0000 C=    0.0000
 XYZ=    4.3640   -0.5270    9.1890 Q=   -0.5070 A=    0.0000 R=    0.0000 C=    0.0000
 XYZ=    5.0670    0.0200   10.3260 Q=    0.3996 A=    0.0000 R=    0.0000 C=    0.0000
 XYZ=    0.6740    1.0470   11.5960 Q=    0.9278 A=    0.0000 R=    0.0000 C=    0.0000
 XYZ=    3.4240    0.9650   17.6310 Q=    0.3166 A=    0.0000 R=    0.0000 C=    0.0000
 XYZ=    3.1360    2.1100   17.6120 Q=   -0.5694 A=    0.0000 R=    0.0000 C=    0.0000
 XYZ=    5.6880    0.7500   16.3890 Q=   -0.3175 A=    0.0000 R=    0.0000 C=    0.0000
 XYZ=    6.2640    0.1300   15.2360 Q=   -0.3082 A=    0.0000 R=    0.0000 C=    0.0000
 XYZ=    6.4200    0.2100   17.5690 Q=    0.9463 A=    0.0000 R=    0.0000 C=    0.0000
 XYZ=    3.1730    0.1290   18.6470 Q=   -0.5421 A=    0.0000 R=    0.0000 C=    0.0000
 XYZ=    2.5590    0.5160   19.9030 Q=    0.0236 A=    0.0000 R=    0.0000 C=    0.0000
 XYZ=    3.3500   -0.1220   21.0140 Q=    0.1847 A=    0.0000 R=    0.0000 C=    0.0000
 XYZ=    3.3660   -1.3390   21.1400 Q=   -0.4163 A=    0.0000 R=    0.0000 C=    0.0000
 XYZ=    1.1380   -0.0210   19.9830 Q=   -0.2907 A=    0.0000 R=    0.0000 C=    0.0000
 XYZ=    0.3930    0.3940   18.8240 Q=   -0.3415 A=    0.0000 R=    0.0000 C=    0.0000
 XYZ=    0.4860    0.5010   21.1670 Q=    0.7765 A=    0.0000 R=    0.0000 C=    0.0000
 XYZ=    4.0670    0.6880   21.7680 Q=   -0.6191 A=    0.0000 R=    0.0000 C=    0.0000
 XYZ=    4.8880    0.2050   22.8510 Q=    0.2833 A=    0.0000 R=    0.0000 C=    0.0000
 XYZ=    4.3500    0.7690   24.1740 Q=    0.1730 A=    0.0000 R=    0.0000 C=    0.0000
 XYZ=    4.1610    1.9810   24.2690 Q=   -0.2861 A=    0.0000 R=    0.0000 C=    0.0000
 XYZ=    6.3620    0.6140   22.6520 Q=   -1.1933 A=    0.0000 R=    0.0000 C=    0.0000
 XYZ=    7.1520    0.2970   23.8740 Q=    0.8585 A=    0.0000 R=    0.0000 C=    0.0000
 XYZ=    6.9530   -0.1210   21.4550 Q=    0.9590 A=    0.0000 R=    0.0000 C=    0.0000
 XYZ=    4.0650   -0.1200   25.1510 Q=   -0.4907 A=    0.0000 R=    0.0000 C=    0.0000
 XYZ=    3.7200    0.3130   26.5150 Q=   -0.3576 A=    0.0000 R=    0.0000 C=    0.0000
 XYZ=    4.9410    0.1400   27.4200 Q=    0.0549 A=    0.0000 R=    0.0000 C=    0.0000
 XYZ=    5.7140   -0.8090   27.2870 Q=   -0.0565 A=    0.0000 R=    0.0000 C=    0.0000
 XYZ=    2.4990   -0.4220   27.0620 Q=    1.1023 A=    0.0000 R=    0.0000 C=    0.0000
 XYZ=    5.2500    0.9550   28.2940 Q=    0.3115 A=    0.0000 R=    0.0000 C=    0.0000
 Pt Chg Charge=              1.2373 electrons
 Pt Chg Dipole moment (Debye):
    X=              6.9794    Y=             -6.1426    Z=            109.9729  Tot=            110.3653
 Pt Chg Quadrupole moment (Debye-Ang):
   XX=            283.2906   YY=            -38.6859   ZZ=           2984.2544
   XY=            -48.8392   XZ=            427.8718   YZ=           -122.1959
 Pt Chg Traceless Quadrupole moment (Debye-Ang):
   XX=           -792.9958   YY=          -1114.9723   ZZ=           1907.9680
   XY=            -48.8392   XZ=            427.8718   YZ=           -122.1959
 Pt Chg Octapole moment (Debye-Ang**2):
  XXX=           1747.1820  YYY=             -5.6649  ZZZ=          82943.5847  XYY=            -66.5276
  XXY=           -208.4235  XXZ=           5285.2166  XZZ=          13044.3287  YZZ=          -3040.4871
  YYZ=           -487.8080  XYZ=           -764.1262
 Pt Chg Hexadecapole moment (Debye-Ang**3):
 XXXX=          19959.3629 YYYY=           -158.7060 ZZZZ=        2345661.0291 XXXY=          -1175.0978
 XXXZ=          43410.7484 YYYX=           -182.4509 YYYZ=           -449.8372 ZZZX=         361471.8563
 ZZZY=         -70769.4840 XXYY=           -488.5363 XXZZ=         121499.6073 YYZZ=          -8026.7662
 XXYZ=          -3287.6028 YYXZ=          -1620.4364 ZZXY=         -14479.7637
 Leave Link  101 at Wed Jan 12 16:08:10 2022, MaxMem=   402653184 cpu:               7.3 elap:               1.7
 (Enter /work/01114/jfonner/frontera/gaussian/16rC.01/g16/l202.exe)
                          Input orientation:                          
 ---------------------------------------------------------------------
 Center     Atomic      Atomic             Coordinates (Angstroms)
 Number     Number       Type             X           Y           Z
 ---------------------------------------------------------------------
      1          6           0        4.271000    0.817000   11.296000
      2          8           0        4.359000    2.033000   11.367000
      3          7           0        3.492000    0.104000   12.073000
      4          6           0        2.585000    0.677000   13.085000
      5          6           0        3.006000    0.047000   14.361000
      6          8           0        2.958000   -1.169000   14.515000
      7          7           0        3.481000    0.887000   15.262000
      8          6           0        4.163000    0.392000   16.442000
      9          6           0        1.127000    0.330000   12.827000
     10          6           0        0.248000    0.675000   14.038000
     11          1           0        4.843965    0.243316   10.597789
     12          1           0        0.802753    0.843213   11.945878
     13          1           0        3.640262    0.797316   17.283049
     14          1           0        5.204086    0.636399   16.405818
 ---------------------------------------------------------------------
                    Distance matrix (angstroms):
                    1          2          3          4          5
     1  C    0.000000
     2  O    1.221246   0.000000
     3  N    1.311083   2.229611   0.000000
     4  C    2.462259   2.817328   1.474829   0.000000
     5  C    3.404020   3.839120   2.339741   1.484021   0.000000
     6  O    4.003764   4.703776   2.805183   2.364687   1.226652
     7  N    4.044522   4.153941   3.283737   2.363524   1.320237
     8  C    5.164650   5.337314   4.429599   3.720317   2.405875
     9  C    3.530703   3.934162   2.492552   1.520769   2.442107
    10  C    4.870653   5.087114   3.835466   2.523843   2.846977
    11  H    1.070000   2.007447   2.005857   3.387804   4.192661
    12  H    3.528706   3.794415   2.791889   2.121705   3.364680
    13  H    6.020214   6.086307   5.258068   4.330320   3.082797
    14  H    5.197452   5.296636   4.689136   4.229550   3.059453
                    6          7          8          9         10
     6  O    0.000000
     7  N    2.249150   0.000000
     8  C    2.757186   1.450017   0.000000
     9  C    2.906700   3.432316   4.721161   0.000000
    10  C    3.312396   3.463439   4.602883   1.535639   0.000000
    11  H    4.571218   4.901720   5.885628   4.335057   5.757108
    12  H    3.910816   4.262815   5.631161   1.070000   2.170950
    13  H    3.463232   2.029297   1.070000   5.137241   4.696035
    14  H    3.446674   2.083302   1.070000   5.433640   5.492799
                   11         12         13         14
    11  H    0.000000
    12  H    4.302164   0.000000
    13  H    6.815315   6.044747   0.000000
    14  H    5.832444   6.269416   1.800270   0.000000
 Symmetry turned off by external request.
 Stoichiometry    C6H4N2O2(2+)
 Framework group  C1[X(C6H4N2O2)]
 Deg. of freedom    36
 Full point group                 C1      NOp   1
 Rotational constants (GHZ):           1.7737116           1.0698576           0.8145243
 Leave Link  202 at Wed Jan 12 16:08:10 2022, MaxMem=   402653184 cpu:               3.6 elap:               0.7
 (Enter /work/01114/jfonner/frontera/gaussian/16rC.01/g16/l301.exe)
 Standard basis: VSTO-6G (5D, 7F)
 Ernie: Thresh=  0.10000D-02 Tol=  0.10000D-05 Strict=F.
  NNHCO=     0 NNPyr=     0 NCTC=     0               EPep=         0.000000000
    EC=       200.267510316  ECS=         3.196150138   EG=         0.280683418
   EHC=         0.001081708  EAt=       -61.016910202  AtH=         2.516083127
 EPDDG=         0.000000000  ECC=       203.745425580 EAtT=        63.532993329
    44 basis functions,   264 primitive gaussians,    44 cartesian basis functions
    24 alpha electrons       24 beta electrons
       nuclear repulsion energy       267.2784189086 Hartrees.
 IExCor=    0 DFT=F Ex=HF Corr=None ExCW=0 ScaHFX=  1.000000
 ScaDFX=  1.000000  1.000000  1.000000  1.000000 ScalE2=  1.000000  1.000000
 IRadAn=      5 IRanWt=     -1 IRanGd=            0 ICorTp=0 IEmpDi=  4
 Integral buffers will be    131072 words long.
 Regular integral format.
 Two-electron integral symmetry is turned off.
 Background charge distribution read from rwf.
 PtFMM for NChg=        70 BoxLen=    40.00 Levels= 1 LMax=20 SMax=    51.8 ICnFMM=     1:
 Self energy of the charges =        -3.2125245929 a.u.
 MM   energy of the charges =         0.0000000000 a.u.
 Nuclei-charges interaction =         5.3702638940 a.u.
 Nuclear repulsion after external point charges =      269.4361582097 Hartrees.
 Leave Link  301 at Wed Jan 12 16:08:12 2022, MaxMem=   402653184 cpu:               6.2 elap:               1.4
 (Enter /work/01114/jfonner/frontera/gaussian/16rC.01/g16/l302.exe)
 Do NDO integrals.
 NPDir=0 NMtPBC=     1 NCelOv=     1 NCel=       1 NClECP=     1 NCelD=      1
         NCelK=      1 NCelE2=     1 NClLst=     1 CellRange=     0.0.
 One-electron integrals computed using PRISM.
 NBasis=    44 RedAO= F EigKep=  0.00D+00  NBF=    44
 NBsUse=    44 1.00D-04 EigRej=  0.00D+00 NBFU=    44
 Leave Link  302 at Wed Jan 12 16:08:16 2022, MaxMem=   402653184 cpu:              25.8 elap:               4.5
 (Enter /work/01114/jfonner/frontera/gaussian/16rC.01/g16/l303.exe)
 DipDrv:  MaxL=1.
 Leave Link  303 at Wed Jan 12 16:08:17 2022, MaxMem=   402653184 cpu:               4.1 elap:               0.9
 (Enter /work/01114/jfonner/frontera/gaussian/16rC.01/g16/l401.exe)
 Simple Huckel Guess.
 JPrj=0 DoOrth=F DoCkMO=F.
 Leave Link  401 at Wed Jan 12 16:08:19 2022, MaxMem=   402653184 cpu:               9.1 elap:               1.9
 (Enter /work/01114/jfonner/frontera/gaussian/16rC.01/g16/l502.exe)
 Keep J ints in memory in canonical form, NReq=865179.
 FoFCou: FMM=F IPFlag=           0 FMFlag=           0 FMFlg1=           0
         NFxFlg=           0 DoJE=F BraDBF=F KetDBF=F FulRan=T
         wScrn=  0.000000 ICntrl=       600 IOpCl=  2 I1Cent=           0 NGrid=           0
         NMat0=    1 NMatS0=    104 NMatT0=    0 NMatD0=    1 NMtDS0=    0 NMtDT0=    0
 Symmetry not used in FoFCou.
 Two-electron integral symmetry not used.
 Closed shell SCF:
 Using DIIS extrapolation, IDIIS=  1040.
 Overlap will be assumed to be unity.
 NGot=   402653184 LenX=   402581398 LenY=   402579021
 Requested convergence on RMS density matrix=1.00D-08 within 128 cycles.
 Requested convergence on MAX density matrix=1.00D-06.
 Requested convergence on             energy=1.00D-06.
 No special actions if energy rises.

 Cycle   1  Pass 1  IDiag  1:
 E=-0.227435365024292    
 DIIS: error= 5.81D-02 at cycle   1 NSaved=   1.
 NSaved= 1 IEnMin= 1 EnMin=-0.227435365024292     IErMin= 1 ErrMin= 5.81D-02
 ErrMax= 5.81D-02  0.00D+00 EMaxC= 1.00D-01 BMatC= 1.96D-01 BMatP= 1.96D-01
 IDIUse=3 WtCom= 4.19D-01 WtEn= 5.81D-01
 Coeff-Com:  0.100D+01
 Coeff-En:   0.100D+01
 Coeff:      0.100D+01
 GapD=    2.000 DampG=2.000 DampE=0.500 DampFc=1.0000 IDamp=-1.
 RMSDP=2.74D-02 MaxDP=2.34D-01              OVMax= 0.00D+00

 Cycle   2  Pass 1  IDiag  1:
 E= -1.02464708180179     Delta-E=       -0.797211716777 Rises=F Damp=F
 DIIS: error= 2.65D-02 at cycle   2 NSaved=   2.
 NSaved= 2 IEnMin= 2 EnMin= -1.02464708180179     IErMin= 2 ErrMin= 2.65D-02
 ErrMax= 2.65D-02  0.00D+00 EMaxC= 1.00D-01 BMatC= 3.13D-02 BMatP= 1.96D-01
 IDIUse=3 WtCom= 7.35D-01 WtEn= 2.65D-01
 Coeff-Com: -0.903D-02 0.101D+01
 Coeff-En:   0.000D+00 0.100D+01
 Coeff:     -0.664D-02 0.101D+01
 RMSDP=8.97D-03 MaxDP=9.34D-02 DE=-7.97D-01 OVMax= 0.00D+00

 Cycle   3  Pass 1  IDiag  1:
 E= -1.13707584499667     Delta-E=       -0.112428763195 Rises=F Damp=F
 DIIS: error= 9.75D-03 at cycle   3 NSaved=   3.
 NSaved= 3 IEnMin= 3 EnMin= -1.13707584499667     IErMin= 3 ErrMin= 9.75D-03
 ErrMax= 9.75D-03  0.00D+00 EMaxC= 1.00D-01 BMatC= 5.06D-03 BMatP= 3.13D-02
 IDIUse=3 WtCom= 9.02D-01 WtEn= 9.75D-02
 Coeff-Com: -0.986D-01-0.161D+00 0.126D+01
 Coeff-En:   0.000D+00 0.000D+00 0.100D+01
 Coeff:     -0.890D-01-0.146D+00 0.123D+01
 RMSDP=5.46D-03 MaxDP=4.07D-02 DE=-1.12D-01 OVMax= 0.00D+00

 Cycle   4  Pass 1  IDiag  3:
 E= -1.16430479555788     Delta-E=       -0.027228950561 Rises=F Damp=F
 DIIS: error= 2.45D-03 at cycle   4 NSaved=   4.
 NSaved= 4 IEnMin= 4 EnMin= -1.16430479555788     IErMin= 4 ErrMin= 2.45D-03
 ErrMax= 2.45D-03  0.00D+00 EMaxC= 1.00D-01 BMatC= 4.98D-04 BMatP= 5.06D-03
 IDIUse=3 WtCom= 9.76D-01 WtEn= 2.45D-02
 Coeff-Com:  0.239D-01-0.700D-01-0.121D+00 0.117D+01
 Coeff-En:   0.000D+00 0.000D+00 0.000D+00 0.100D+01
 Coeff:      0.234D-01-0.683D-01-0.118D+00 0.116D+01
 Gap=     0.155 Goal=   None    Shift=    0.000
 RMSDP=2.73D-03 MaxDP=2.24D-02 DE=-2.72D-02 OVMax= 5.63D-02

 Cycle   5  Pass 1  IDiag  3:
 E= -1.16886034939631     Delta-E=       -0.004555553838 Rises=F Damp=F
 DIIS: error= 1.20D-03 at cycle   5 NSaved=   5.
 NSaved= 5 IEnMin= 5 EnMin= -1.16886034939631     IErMin= 5 ErrMin= 1.20D-03
 ErrMax= 1.20D-03  0.00D+00 EMaxC= 1.00D-01 BMatC= 1.55D-04 BMatP= 4.98D-04
 IDIUse=3 WtCom= 9.88D-01 WtEn= 1.20D-02
 Coeff-Com:  0.172D-01 0.982D-02-0.172D+00 0.190D+00 0.955D+00
 Coeff-En:   0.000D+00 0.000D+00 0.000D+00 0.000D+00 0.100D+01
 Coeff:      0.170D-01 0.970D-02-0.170D+00 0.188D+00 0.956D+00
 Gap=     0.159 Goal=   None    Shift=    0.000
 RMSDP=1.47D-03 MaxDP=1.02D-02 DE=-4.56D-03 OVMax= 2.76D-02

 Cycle   6  Pass 1  IDiag  3:
 E= -1.17056548978303     Delta-E=       -0.001705140387 Rises=F Damp=F
 DIIS: error= 9.82D-04 at cycle   6 NSaved=   6.
 NSaved= 6 IEnMin= 6 EnMin= -1.17056548978303     IErMin= 6 ErrMin= 9.82D-04
 ErrMax= 9.82D-04  0.00D+00 EMaxC= 1.00D-01 BMatC= 6.24D-05 BMatP= 1.55D-04
 IDIUse=3 WtCom= 9.90D-01 WtEn= 9.82D-03
 Coeff-Com: -0.388D-02 0.339D-02 0.333D-01-0.127D+00-0.561D+00 0.166D+01
 Coeff-En:   0.000D+00 0.000D+00 0.000D+00 0.000D+00 0.000D+00 0.100D+01
 Coeff:     -0.385D-02 0.336D-02 0.330D-01-0.126D+00-0.556D+00 0.165D+01
 Gap=     0.160 Goal=   None    Shift=    0.000
 RMSDP=1.92D-03 MaxDP=1.66D-02 DE=-1.71D-03 OVMax= 3.92D-02

 Cycle   7  Pass 1  IDiag  3:
 E= -1.17203008963435     Delta-E=       -0.001464599851 Rises=F Damp=F
 DIIS: error= 7.37D-04 at cycle   7 NSaved=   7.
 NSaved= 7 IEnMin= 7 EnMin= -1.17203008963435     IErMin= 7 ErrMin= 7.37D-04
 ErrMax= 7.37D-04  0.00D+00 EMaxC= 1.00D-01 BMatC= 3.58D-05 BMatP= 6.24D-05
 IDIUse=3 WtCom= 9.93D-01 WtEn= 7.37D-03
 Coeff-Com:  0.337D-02-0.205D-01 0.171D-01 0.261D+00-0.456D+00-0.761D+00
 Coeff-Com:  0.196D+01
 Coeff-En:   0.000D+00 0.000D+00 0.000D+00 0.000D+00 0.000D+00 0.000D+00
 Coeff-En:   0.100D+01
 Coeff:      0.335D-02-0.203D-01 0.170D-01 0.259D+00-0.452D+00-0.756D+00
 Coeff:      0.195D+01
 Gap=     0.160 Goal=   None    Shift=    0.000
 RMSDP=2.14D-03 MaxDP=1.78D-02 DE=-1.46D-03 OVMax= 4.36D-02

 Cycle   8  Pass 1  IDiag  3:
 E= -1.17315851606958     Delta-E=       -0.001128426435 Rises=F Damp=F
 DIIS: error= 4.90D-04 at cycle   8 NSaved=   8.
 NSaved= 8 IEnMin= 8 EnMin= -1.17315851606958     IErMin= 8 ErrMin= 4.90D-04
 ErrMax= 4.90D-04  0.00D+00 EMaxC= 1.00D-01 BMatC= 1.60D-05 BMatP= 3.58D-05
 IDIUse=3 WtCom= 9.95D-01 WtEn= 4.90D-03
 Coeff-Com:  0.237D-02 0.110D-02-0.221D-01-0.318D-01 0.154D+00 0.539D+00
 Coeff-Com: -0.188D+01 0.224D+01
 Coeff-En:   0.000D+00 0.000D+00 0.000D+00 0.000D+00 0.000D+00 0.000D+00
 Coeff-En:   0.000D+00 0.100D+01
 Coeff:      0.236D-02 0.109D-02-0.220D-01-0.316D-01 0.153D+00 0.536D+00
 Coeff:     -0.188D+01 0.224D+01
 Gap=     0.160 Goal=   None    Shift=    0.000
 RMSDP=1.89D-03 MaxDP=1.44D-02 DE=-1.13D-03 OVMax= 3.96D-02

 Cycle   9  Pass 1  IDiag  3:
 E= -1.17382574648605     Delta-E=       -0.000667230416 Rises=F Damp=F
 DIIS: error= 2.68D-04 at cycle   9 NSaved=   9.
 NSaved= 9 IEnMin= 9 EnMin= -1.17382574648605     IErMin= 9 ErrMin= 2.68D-04
 ErrMax= 2.68D-04  0.00D+00 EMaxC= 1.00D-01 BMatC= 7.49D-06 BMatP= 1.60D-05
 IDIUse=3 WtCom= 9.97D-01 WtEn= 2.68D-03
 Coeff-Com: -0.242D-03-0.528D-02 0.122D-01 0.482D-01-0.177D+00-0.181D+00
 Coeff-Com:  0.116D+01-0.214D+01 0.229D+01
 Coeff-En:   0.000D+00 0.000D+00 0.000D+00 0.000D+00 0.000D+00 0.000D+00
 Coeff-En:   0.000D+00 0.000D+00 0.100D+01
 Coeff:     -0.241D-03-0.527D-02 0.122D-01 0.480D-01-0.177D+00-0.181D+00
 Coeff:      0.115D+01-0.213D+01 0.228D+01
 Gap=     0.161 Goal=   None    Shift=    0.000
 RMSDP=1.57D-03 MaxDP=1.12D-02 DE=-6.67D-04 OVMax= 3.16D-02

 Cycle  10  Pass 1  IDiag  3:
 E= -1.17421567479226     Delta-E=       -0.000389928306 Rises=F Damp=F
 DIIS: error= 2.30D-04 at cycle  10 NSaved=  10.
 NSaved=10 IEnMin=10 EnMin= -1.17421567479226     IErMin=10 ErrMin= 2.30D-04
 ErrMax= 2.30D-04  0.00D+00 EMaxC= 1.00D-01 BMatC= 4.18D-06 BMatP= 7.49D-06
 IDIUse=3 WtCom= 9.98D-01 WtEn= 2.30D-03
 Coeff-Com: -0.189D-04-0.280D-02 0.105D-01-0.614D-02-0.649D-01 0.204D+00
 Coeff-Com: -0.451D+00 0.933D+00-0.163D+01 0.201D+01
 Coeff-En:   0.000D+00 0.000D+00 0.000D+00 0.000D+00 0.000D+00 0.000D+00
 Coeff-En:   0.000D+00 0.000D+00 0.000D+00 0.100D+01
 Coeff:     -0.188D-04-0.279D-02 0.104D-01-0.613D-02-0.648D-01 0.204D+00
 Coeff:     -0.450D+00 0.931D+00-0.163D+01 0.201D+01
 Gap=     0.161 Goal=   None    Shift=    0.000
 RMSDP=1.14D-03 MaxDP=8.99D-03 DE=-3.90D-04 OVMax= 2.44D-02

 Cycle  11  Pass 1  IDiag  3:
 E= -1.17443377415657     Delta-E=       -0.000218099364 Rises=F Damp=F
 DIIS: error= 1.97D-04 at cycle  11 NSaved=  11.
 NSaved=11 IEnMin=11 EnMin= -1.17443377415657     IErMin=11 ErrMin= 1.97D-04
 ErrMax= 1.97D-04  0.00D+00 EMaxC= 1.00D-01 BMatC= 2.74D-06 BMatP= 4.18D-06
 IDIUse=3 WtCom= 9.98D-01 WtEn= 1.97D-03
 Coeff-Com: -0.446D-03-0.227D-02 0.839D-02-0.152D-01-0.149D-01 0.522D-01
 Coeff-Com: -0.215D-01-0.818D-01 0.399D+00-0.134D+01 0.202D+01
 Coeff-En:   0.000D+00 0.000D+00 0.000D+00 0.000D+00 0.000D+00 0.000D+00
 Coeff-En:   0.000D+00 0.000D+00 0.000D+00 0.000D+00 0.100D+01
 Coeff:     -0.445D-03-0.227D-02 0.837D-02-0.151D-01-0.149D-01 0.521D-01
 Coeff:     -0.215D-01-0.817D-01 0.398D+00-0.134D+01 0.202D+01
 Gap=     0.162 Goal=   None    Shift=    0.000
 RMSDP=1.01D-03 MaxDP=8.78D-03 DE=-2.18D-04 OVMax= 2.47D-02

 Cycle  12  Pass 1  IDiag  3:
 E= -1.17459378345580     Delta-E=       -0.000160009299 Rises=F Damp=F
 DIIS: error= 1.69D-04 at cycle  12 NSaved=  12.
 NSaved=12 IEnMin=12 EnMin= -1.17459378345580     IErMin=12 ErrMin= 1.69D-04
 ErrMax= 1.69D-04  0.00D+00 EMaxC= 1.00D-01 BMatC= 2.04D-06 BMatP= 2.74D-06
 IDIUse=3 WtCom= 9.98D-01 WtEn= 1.69D-03
 Coeff-Com: -0.370D-03-0.143D-02 0.729D-02-0.154D-01-0.796D-02 0.772D-01
 Coeff-Com: -0.103D+00 0.147D-01 0.205D+00-0.240D+00-0.662D+00 0.173D+01
 Coeff-En:   0.000D+00 0.000D+00 0.000D+00 0.000D+00 0.000D+00 0.000D+00
 Coeff-En:   0.000D+00 0.000D+00 0.000D+00 0.000D+00 0.000D+00 0.100D+01
 Coeff:     -0.370D-03-0.143D-02 0.728D-02-0.154D-01-0.795D-02 0.771D-01
 Coeff:     -0.103D+00 0.146D-01 0.204D+00-0.240D+00-0.661D+00 0.173D+01
 Gap=     0.163 Goal=   None    Shift=    0.000
 RMSDP=8.15D-04 MaxDP=7.22D-03 DE=-1.60D-04 OVMax= 2.13D-02

 Cycle  13  Pass 1  IDiag  3:
 E= -1.17470424043762     Delta-E=       -0.000110456982 Rises=F Damp=F
 DIIS: error= 1.33D-04 at cycle  13 NSaved=  13.
 NSaved=13 IEnMin=13 EnMin= -1.17470424043762     IErMin=13 ErrMin= 1.33D-04
 ErrMax= 1.33D-04  0.00D+00 EMaxC= 1.00D-01 BMatC= 1.45D-06 BMatP= 2.04D-06
 IDIUse=3 WtCom= 9.99D-01 WtEn= 1.33D-03
 Coeff-Com: -0.154D-03-0.107D-02 0.393D-02-0.691D-02 0.567D-02 0.129D-01
 Coeff-Com: -0.412D-01 0.257D-02 0.606D-01 0.475D-01-0.178D+00-0.114D+01
 Coeff-Com:  0.223D+01
 Coeff-En:   0.000D+00 0.000D+00 0.000D+00 0.000D+00 0.000D+00 0.000D+00
 Coeff-En:   0.000D+00 0.000D+00 0.000D+00 0.000D+00 0.000D+00 0.000D+00
 Coeff-En:   0.100D+01
 Coeff:     -0.154D-03-0.107D-02 0.393D-02-0.690D-02 0.566D-02 0.128D-01
 Coeff:     -0.411D-01 0.256D-02 0.605D-01 0.474D-01-0.177D+00-0.114D+01
 Coeff:      0.223D+01
 Gap=     0.164 Goal=   None    Shift=    0.000
 RMSDP=1.16D-03 MaxDP=1.04D-02 DE=-1.10D-04 OVMax= 3.05D-02

 Cycle  14  Pass 1  IDiag  3:
 E= -1.17481945943553     Delta-E=       -0.000115218998 Rises=F Damp=F
 DIIS: error= 1.09D-04 at cycle  14 NSaved=  14.
 NSaved=14 IEnMin=14 EnMin= -1.17481945943553     IErMin=14 ErrMin= 1.09D-04
 ErrMax= 1.09D-04  0.00D+00 EMaxC= 1.00D-01 BMatC= 1.08D-06 BMatP= 1.45D-06
 IDIUse=3 WtCom= 9.99D-01 WtEn= 1.09D-03
 Coeff-Com: -0.449D-03-0.190D-02 0.801D-02-0.106D-01-0.180D-01 0.373D-01
 Coeff-Com:  0.136D-01-0.120D+00 0.239D+00-0.301D+00 0.543D+00-0.927D+00
 Coeff-Com:  0.323D+00 0.121D+01
 Coeff-En:   0.000D+00 0.000D+00 0.000D+00 0.000D+00 0.000D+00 0.000D+00
 Coeff-En:   0.000D+00 0.000D+00 0.000D+00 0.000D+00 0.000D+00 0.000D+00
 Coeff-En:   0.000D+00 0.100D+01
 Coeff:     -0.448D-03-0.190D-02 0.800D-02-0.106D-01-0.180D-01 0.373D-01
 Coeff:      0.136D-01-0.119D+00 0.239D+00-0.301D+00 0.542D+00-0.926D+00
 Coeff:      0.323D+00 0.121D+01
 Gap=     0.165 Goal=   None    Shift=    0.000
 RMSDP=4.64D-04 MaxDP=3.79D-03 DE=-1.15D-04 OVMax= 1.21D-02

 Cycle  15  Pass 1  IDiag  3:
 E= -1.17485493391359     Delta-E=       -0.000035474478 Rises=F Damp=F
 DIIS: error= 8.70D-05 at cycle  15 NSaved=  15.
 NSaved=15 IEnMin=15 EnMin= -1.17485493391359     IErMin=15 ErrMin= 8.70D-05
 ErrMax= 8.70D-05  0.00D+00 EMaxC= 1.00D-01 BMatC= 4.61D-07 BMatP= 1.08D-06
 IDIUse=1 WtCom= 1.00D+00 WtEn= 0.00D+00
 Coeff-Com:  0.141D-03 0.794D-03-0.183D-02-0.405D-03 0.561D-02 0.490D-02
 Coeff-Com: -0.385D-01 0.866D-01-0.160D+00 0.207D+00-0.159D+00 0.281D+00
 Coeff-Com: -0.810D+00-0.474D+00 0.206D+01
 Coeff:      0.141D-03 0.794D-03-0.183D-02-0.405D-03 0.561D-02 0.490D-02
 Coeff:     -0.385D-01 0.866D-01-0.160D+00 0.207D+00-0.159D+00 0.281D+00
 Coeff:     -0.810D+00-0.474D+00 0.206D+01
 Gap=     0.166 Goal=   None    Shift=    0.000
 RMSDP=1.04D-03 MaxDP=9.04D-03 DE=-3.55D-05 OVMax= 2.71D-02

 Cycle  16  Pass 1  IDiag  3:
 E= -1.17488918002664     Delta-E=       -0.000034246113 Rises=F Damp=F
 DIIS: error= 5.59D-05 at cycle  16 NSaved=  16.
 NSaved=16 IEnMin=16 EnMin= -1.17488918002664     IErMin=16 ErrMin= 5.59D-05
 ErrMax= 5.59D-05  0.00D+00 EMaxC= 1.00D-01 BMatC= 3.59D-07 BMatP= 4.61D-07
 IDIUse=1 WtCom= 1.00D+00 WtEn= 0.00D+00
 Coeff-Com:  0.156D-03 0.269D-03-0.116D-02-0.452D-03 0.476D-02 0.141D-01
 Coeff-Com: -0.545D-01 0.879D-01-0.115D+00 0.116D+00-0.109D+00 0.143D+00
 Coeff-Com: -0.102D+00-0.799D+00 0.121D+01 0.608D+00
 Coeff:      0.156D-03 0.269D-03-0.116D-02-0.452D-03 0.476D-02 0.141D-01
 Coeff:     -0.545D-01 0.879D-01-0.115D+00 0.116D+00-0.109D+00 0.143D+00
 Coeff:     -0.102D+00-0.799D+00 0.121D+01 0.608D+00
 Gap=     0.166 Goal=   None    Shift=    0.000
 RMSDP=7.63D-05 MaxDP=7.23D-04 DE=-3.42D-05 OVMax= 1.47D-03

 Cycle  17  Pass 1  IDiag  3:
 E= -1.17489155234102     Delta-E=       -0.000002372314 Rises=F Damp=F
 DIIS: error= 3.08D-05 at cycle  17 NSaved=  17.
 NSaved=17 IEnMin=17 EnMin= -1.17489155234102     IErMin=17 ErrMin= 3.08D-05
 ErrMax= 3.08D-05  0.00D+00 EMaxC= 1.00D-01 BMatC= 6.87D-08 BMatP= 3.59D-07
 IDIUse=1 WtCom= 1.00D+00 WtEn= 0.00D+00
 Coeff-Com: -0.643D-04 0.511D-03-0.936D-03-0.512D-02 0.214D-01-0.200D-01
 Coeff-Com: -0.359D-02 0.456D-02 0.135D-01-0.316D-01 0.952D-01-0.138D+00
 Coeff-Com:  0.181D+00 0.176D+00-0.615D+00-0.246D+00 0.157D+01
 Coeff:     -0.643D-04 0.511D-03-0.936D-03-0.512D-02 0.214D-01-0.200D-01
 Coeff:     -0.359D-02 0.456D-02 0.135D-01-0.316D-01 0.952D-01-0.138D+00
 Coeff:      0.181D+00 0.176D+00-0.615D+00-0.246D+00 0.157D+01
 Gap=     0.166 Goal=   None    Shift=    0.000
 RMSDP=7.28D-05 MaxDP=6.00D-04 DE=-2.37D-06 OVMax= 1.15D-03

 Cycle  18  Pass 1  IDiag  3:
 E= -1.17489280328635     Delta-E=       -0.000001250945 Rises=F Damp=F
 DIIS: error= 1.94D-05 at cycle  18 NSaved=  18.
 NSaved=18 IEnMin=18 EnMin= -1.17489280328635     IErMin=18 ErrMin= 1.94D-05
 ErrMax= 1.94D-05  0.00D+00 EMaxC= 1.00D-01 BMatC= 2.84D-08 BMatP= 6.87D-08
 IDIUse=1 WtCom= 1.00D+00 WtEn= 0.00D+00
 Coeff-Com:  0.106D-03-0.180D-03-0.730D-03 0.533D-02-0.484D-02-0.112D-01
 Coeff-Com:  0.241D-01-0.165D-01 0.363D-02 0.473D-02-0.252D-01 0.360D-01
 Coeff-Com: -0.107D-01 0.192D+00-0.388D+00-0.145D-01 0.184D+00 0.102D+01
 Coeff:      0.106D-03-0.180D-03-0.730D-03 0.533D-02-0.484D-02-0.112D-01
 Coeff:      0.241D-01-0.165D-01 0.363D-02 0.473D-02-0.252D-01 0.360D-01
 Coeff:     -0.107D-01 0.192D+00-0.388D+00-0.145D-01 0.184D+00 0.102D+01
 Gap=     0.166 Goal=   None    Shift=    0.000
 RMSDP=1.01D-04 MaxDP=8.56D-04 DE=-1.25D-06 OVMax= 2.50D-03

 Cycle  19  Pass 1  IDiag  3:
 E= -1.17489329194035     Delta-E=       -0.000000488654 Rises=F Damp=F
 DIIS: error= 1.13D-05 at cycle  19 NSaved=  19.
 NSaved=19 IEnMin=19 EnMin= -1.17489329194035     IErMin=19 ErrMin= 1.13D-05
 ErrMax= 1.13D-05  0.00D+00 EMaxC= 1.00D-01 BMatC= 1.03D-08 BMatP= 2.84D-08
 IDIUse=1 WtCom= 1.00D+00 WtEn= 0.00D+00
 Coeff-Com: -0.276D-05-0.108D-03 0.279D-03-0.422D-03-0.285D-02 0.875D-02
 Coeff-Com: -0.116D-01 0.118D-01-0.406D-02 0.256D-02-0.144D-01 0.687D-02
 Coeff-Com:  0.115D-01-0.420D-01 0.120D+00-0.854D-01-0.161D+00-0.585D+00
 Coeff-Com:  0.175D+01
 Coeff:     -0.276D-05-0.108D-03 0.279D-03-0.422D-03-0.285D-02 0.875D-02
 Coeff:     -0.116D-01 0.118D-01-0.406D-02 0.256D-02-0.144D-01 0.687D-02
 Coeff:      0.115D-01-0.420D-01 0.120D+00-0.854D-01-0.161D+00-0.585D+00
 Coeff:      0.175D+01
 Gap=     0.166 Goal=   None    Shift=    0.000
 RMSDP=2.74D-05 MaxDP=2.06D-04 DE=-4.89D-07 OVMax= 4.81D-04

 Cycle  20  Pass 1  IDiag  3:
 E= -1.17489350818329     Delta-E=       -0.000000216243 Rises=F Damp=F
 DIIS: error= 5.22D-06 at cycle  20 NSaved=  20.
 NSaved=20 IEnMin=20 EnMin= -1.17489350818329     IErMin=20 ErrMin= 5.22D-06
 ErrMax= 5.22D-06  0.00D+00 EMaxC= 1.00D-01 BMatC= 3.30D-09 BMatP= 1.03D-08
 IDIUse=1 WtCom= 1.00D+00 WtEn= 0.00D+00
 Coeff-Com: -0.125D-04 0.127D-03-0.160D-03-0.563D-03 0.367D-02-0.641D-02
 Coeff-Com:  0.499D-02-0.477D-02 0.518D-02-0.617D-02 0.130D-01-0.874D-02
 Coeff-Com:  0.695D-02 0.117D-01-0.474D-01 0.361D-01 0.140D+00-0.665D-01
 Coeff-Com: -0.930D+00 0.185D+01
 Coeff:     -0.125D-04 0.127D-03-0.160D-03-0.563D-03 0.367D-02-0.641D-02
 Coeff:      0.499D-02-0.477D-02 0.518D-02-0.617D-02 0.130D-01-0.874D-02
 Coeff:      0.695D-02 0.117D-01-0.474D-01 0.361D-01 0.140D+00-0.665D-01
 Coeff:     -0.930D+00 0.185D+01
 Gap=     0.166 Goal=   None    Shift=    0.000
 RMSDP=1.93D-05 MaxDP=1.29D-04 DE=-2.16D-07 OVMax= 2.91D-04

 Cycle  21  Pass 1  IDiag  3:
 E= -1.17489358388724     Delta-E=       -0.000000075704 Rises=F Damp=F
 DIIS: error= 2.86D-06 at cycle  21 NSaved=  20.
 NSaved=20 IEnMin=20 EnMin= -1.17489358388724     IErMin=20 ErrMin= 2.86D-06
 ErrMax= 2.86D-06  0.00D+00 EMaxC= 1.00D-01 BMatC= 8.87D-10 BMatP= 3.30D-09
 IDIUse=1 WtCom= 1.00D+00 WtEn= 0.00D+00
 Coeff-Com: -0.542D-04 0.105D-03-0.296D-03-0.246D-03 0.296D-02-0.516D-02
 Coeff-Com:  0.633D-02-0.561D-02 0.713D-02-0.729D-02 0.735D-03-0.393D-03
 Coeff-Com: -0.113D-01 0.271D-01-0.194D-01-0.520D-01-0.368D-01 0.639D+00
 Coeff-Com: -0.160D+01 0.206D+01
 Coeff:     -0.542D-04 0.105D-03-0.296D-03-0.246D-03 0.296D-02-0.516D-02
 Coeff:      0.633D-02-0.561D-02 0.713D-02-0.729D-02 0.735D-03-0.393D-03
 Coeff:     -0.113D-01 0.271D-01-0.194D-01-0.520D-01-0.368D-01 0.639D+00
 Coeff:     -0.160D+01 0.206D+01
 Gap=     0.166 Goal=   None    Shift=    0.000
 RMSDP=1.14D-05 MaxDP=8.06D-05 DE=-7.57D-08 OVMax= 1.76D-04

 Cycle  22  Pass 1  IDiag  3:
 E= -1.17489360479829     Delta-E=       -0.000000020911 Rises=F Damp=F
 DIIS: error= 1.58D-06 at cycle  22 NSaved=  20.
 NSaved=20 IEnMin=20 EnMin= -1.17489360479829     IErMin=20 ErrMin= 1.58D-06
 ErrMax= 1.58D-06  0.00D+00 EMaxC= 1.00D-01 BMatC= 2.38D-10 BMatP= 8.87D-10
 IDIUse=1 WtCom= 1.00D+00 WtEn= 0.00D+00
 Coeff-Com:  0.256D-04 0.187D-03-0.287D-03-0.154D-02 0.337D-02-0.386D-02
 Coeff-Com:  0.265D-02-0.403D-02 0.594D-02-0.102D-02 0.482D-03 0.622D-02
 Coeff-Com: -0.166D-01 0.120D-01 0.304D-01-0.416D-01-0.220D+00 0.817D+00
 Coeff-Com: -0.161D+01 0.202D+01
 Coeff:      0.256D-04 0.187D-03-0.287D-03-0.154D-02 0.337D-02-0.386D-02
 Coeff:      0.265D-02-0.403D-02 0.594D-02-0.102D-02 0.482D-03 0.622D-02
 Coeff:     -0.166D-01 0.120D-01 0.304D-01-0.416D-01-0.220D+00 0.817D+00
 Coeff:     -0.161D+01 0.202D+01
 Gap=     0.166 Goal=   None    Shift=    0.000
 RMSDP=5.55D-06 MaxDP=4.11D-05 DE=-2.09D-08 OVMax= 1.13D-04

 Cycle  23  Pass 1  IDiag  3:
 E= -1.17489361054771     Delta-E=       -0.000000005749 Rises=F Damp=F
 DIIS: error= 8.14D-07 at cycle  23 NSaved=  20.
 NSaved=20 IEnMin=20 EnMin= -1.17489361054771     IErMin=20 ErrMin= 8.14D-07
 ErrMax= 8.14D-07  0.00D+00 EMaxC= 1.00D-01 BMatC= 5.55D-11 BMatP= 2.38D-10
 IDIUse=1 WtCom= 1.00D+00 WtEn= 0.00D+00
 Coeff-Com: -0.742D-04 0.704D-04 0.662D-03-0.151D-02 0.196D-02-0.127D-02
 Coeff-Com:  0.903D-03-0.196D-02 0.872D-03-0.228D-04-0.298D-02 0.555D-02
 Coeff-Com: -0.120D-02-0.203D-01 0.502D-01-0.142D-01-0.115D+00 0.427D+00
 Coeff-Com: -0.106D+01 0.173D+01
 Coeff:     -0.742D-04 0.704D-04 0.662D-03-0.151D-02 0.196D-02-0.127D-02
 Coeff:      0.903D-03-0.196D-02 0.872D-03-0.228D-04-0.298D-02 0.555D-02
 Coeff:     -0.120D-02-0.203D-01 0.502D-01-0.142D-01-0.115D+00 0.427D+00
 Coeff:     -0.106D+01 0.173D+01
 Gap=     0.166 Goal=   None    Shift=    0.000
 RMSDP=2.15D-06 MaxDP=1.80D-05 DE=-5.75D-09 OVMax= 4.58D-05

 Cycle  24  Pass 1  IDiag  3:
 E= -1.17489361163808     Delta-E=       -0.000000001090 Rises=F Damp=F
 DIIS: error= 3.84D-07 at cycle  24 NSaved=  20.
 NSaved=20 IEnMin=20 EnMin= -1.17489361163808     IErMin=20 ErrMin= 3.84D-07
 ErrMax= 3.84D-07  0.00D+00 EMaxC= 1.00D-01 BMatC= 1.17D-11 BMatP= 5.55D-11
 IDIUse=1 WtCom= 1.00D+00 WtEn= 0.00D+00
 Coeff-Com:  0.246D-04-0.129D-03 0.105D-03 0.237D-03-0.718D-03 0.941D-03
 Coeff-Com: -0.447D-03 0.692D-03-0.102D-02 0.817D-03 0.606D-03-0.811D-03
 Coeff-Com:  0.547D-03-0.149D-01 0.367D-01-0.519D-01 0.461D-02 0.154D+00
 Coeff-Com: -0.762D+00 0.163D+01
 Coeff:      0.246D-04-0.129D-03 0.105D-03 0.237D-03-0.718D-03 0.941D-03
 Coeff:     -0.447D-03 0.692D-03-0.102D-02 0.817D-03 0.606D-03-0.811D-03
 Coeff:      0.547D-03-0.149D-01 0.367D-01-0.519D-01 0.461D-02 0.154D+00
 Coeff:     -0.762D+00 0.163D+01
 Gap=     0.166 Goal=   None    Shift=    0.000
 RMSDP=1.36D-06 MaxDP=1.03D-05 DE=-1.09D-09 OVMax= 2.10D-05

 Cycle  25  Pass 1  IDiag  3:
 E= -1.17489361189160     Delta-E=       -0.000000000254 Rises=F Damp=F
 DIIS: error= 1.44D-07 at cycle  25 NSaved=  20.
 NSaved=20 IEnMin=20 EnMin= -1.17489361189160     IErMin=20 ErrMin= 1.44D-07
 ErrMax= 1.44D-07  0.00D+00 EMaxC= 1.00D-01 BMatC= 2.50D-12 BMatP= 1.17D-11
 IDIUse=1 WtCom= 1.00D+00 WtEn= 0.00D+00
 Coeff-Com: -0.795D-05 0.856D-04-0.248D-03 0.390D-03-0.293D-03-0.916D-04
 Coeff-Com: -0.284D-03 0.618D-03-0.742D-03 0.594D-03-0.841D-04 0.449D-03
 Coeff-Com: -0.213D-02 0.644D-02-0.127D-01 0.333D-01-0.613D-01 0.184D+00
 Coeff-Com: -0.762D+00 0.161D+01
 Coeff:     -0.795D-05 0.856D-04-0.248D-03 0.390D-03-0.293D-03-0.916D-04
 Coeff:     -0.284D-03 0.618D-03-0.742D-03 0.594D-03-0.841D-04 0.449D-03
 Coeff:     -0.213D-02 0.644D-02-0.127D-01 0.333D-01-0.613D-01 0.184D+00
 Coeff:     -0.762D+00 0.161D+01
 Gap=     0.166 Goal=   None    Shift=    0.000
 RMSDP=5.01D-07 MaxDP=6.28D-06 DE=-2.54D-10 OVMax= 9.38D-06

 Cycle  26  Pass 1  IDiag  3:
 E= -1.17489361193310     Delta-E=       -0.000000000041 Rises=F Damp=F
 DIIS: error= 8.08D-08 at cycle  26 NSaved=  20.
 NSaved=20 IEnMin=20 EnMin= -1.17489361193310     IErMin=20 ErrMin= 8.08D-08
 ErrMax= 8.08D-08  0.00D+00 EMaxC= 1.00D-01 BMatC= 7.79D-13 BMatP= 2.50D-12
 IDIUse=1 WtCom= 1.00D+00 WtEn= 0.00D+00
 Coeff-Com:  0.300D-05 0.174D-04-0.583D-04 0.672D-04-0.117D-03 0.229D-03
 Coeff-Com: -0.262D-03 0.114D-03 0.946D-04 0.511D-03-0.243D-02 0.664D-02
 Coeff-Com: -0.119D-01 0.216D-01-0.357D-01 0.418D-01-0.217D-01 0.918D-01
 Coeff-Com: -0.633D+00 0.154D+01
 Coeff:      0.300D-05 0.174D-04-0.583D-04 0.672D-04-0.117D-03 0.229D-03
 Coeff:     -0.262D-03 0.114D-03 0.946D-04 0.511D-03-0.243D-02 0.664D-02
 Coeff:     -0.119D-01 0.216D-01-0.357D-01 0.418D-01-0.217D-01 0.918D-01
 Coeff:     -0.633D+00 0.154D+01
 Gap=     0.166 Goal=   None    Shift=    0.000
 RMSDP=2.66D-07 MaxDP=2.20D-06 DE=-4.15D-11 OVMax= 5.03D-06

 Cycle  27  Pass 1  IDiag  3:
 E= -1.17489361194276     Delta-E=       -0.000000000010 Rises=F Damp=F
 DIIS: error= 3.96D-08 at cycle  27 NSaved=  20.
 NSaved=20 IEnMin=20 EnMin= -1.17489361194276     IErMin=20 ErrMin= 3.96D-08
 ErrMax= 3.96D-08  0.00D+00 EMaxC= 1.00D-01 BMatC= 1.43D-13 BMatP= 7.79D-13
 IDIUse=1 WtCom= 1.00D+00 WtEn= 0.00D+00
 Coeff-Com: -0.105D-04 0.438D-04-0.108D-03 0.158D-03-0.140D-03 0.548D-04
 Coeff-Com: -0.342D-03 0.761D-03-0.683D-04-0.540D-03-0.300D-02 0.908D-02
 Coeff-Com: -0.155D-01 0.216D-01-0.236D-01-0.308D-02 0.470D-01 0.114D+00
 Coeff-Com: -0.917D+00 0.177D+01
 Coeff:     -0.105D-04 0.438D-04-0.108D-03 0.158D-03-0.140D-03 0.548D-04
 Coeff:     -0.342D-03 0.761D-03-0.683D-04-0.540D-03-0.300D-02 0.908D-02
 Coeff:     -0.155D-01 0.216D-01-0.236D-01-0.308D-02 0.470D-01 0.114D+00
 Coeff:     -0.917D+00 0.177D+01
 Gap=     0.166 Goal=   None    Shift=    0.000
 RMSDP=1.07D-07 MaxDP=8.01D-07 DE=-9.66D-12 OVMax= 1.85D-06

 Cycle  28  Pass 1  IDiag  3:
 E= -1.17489361194492     Delta-E=       -0.000000000002 Rises=F Damp=F
 DIIS: error= 2.24D-08 at cycle  28 NSaved=  20.
 NSaved=20 IEnMin=20 EnMin= -1.17489361194492     IErMin=20 ErrMin= 2.24D-08
 ErrMax= 2.24D-08  0.00D+00 EMaxC= 1.00D-01 BMatC= 2.31D-14 BMatP= 1.43D-13
 IDIUse=1 WtCom= 1.00D+00 WtEn= 0.00D+00
 Large coefficients: NSaved= 20 BigCof=    0.00 CofMax=   10.00 Det=-5.56D-15
 Inversion failed.  Reducing to 19 matrices.
 Large coefficients: NSaved= 19 BigCof=    0.00 CofMax=   10.00 Det=-5.73D-15
 Inversion failed.  Reducing to 18 matrices.
 Large coefficients: NSaved= 18 BigCof=    0.00 CofMax=   10.00 Det=-5.92D-15
 Inversion failed.  Reducing to 17 matrices.
 Large coefficients: NSaved= 17 BigCof=    0.00 CofMax=   10.00 Det=-6.07D-15
 Inversion failed.  Reducing to 16 matrices.
 Large coefficients: NSaved= 16 BigCof=    0.00 CofMax=   10.00 Det=-6.18D-15
 Inversion failed.  Reducing to 15 matrices.
 Coeff-Com:  0.154D-03-0.372D-03 0.596D-04 0.494D-03 0.732D-03-0.384D-02
 Coeff-Com:  0.761D-02-0.997D-02 0.814D-02 0.782D-02-0.405D-01 0.228D-01
 Coeff-Com:  0.276D+00-0.102D+01 0.175D+01
 Coeff:      0.154D-03-0.372D-03 0.596D-04 0.494D-03 0.732D-03-0.384D-02
 Coeff:      0.761D-02-0.997D-02 0.814D-02 0.782D-02-0.405D-01 0.228D-01
 Coeff:      0.276D+00-0.102D+01 0.175D+01
 Gap=     0.166 Goal=   None    Shift=    0.000
 RMSDP=3.58D-08 MaxDP=2.81D-07 DE=-2.16D-12 OVMax= 5.89D-07

 Cycle  29  Pass 1  IDiag  3:
 E= -1.17489361194538     Delta-E=       -0.000000000000 Rises=F Damp=F
 DIIS: error= 1.26D-08 at cycle  29 NSaved=  16.
 NSaved=16 IEnMin=16 EnMin= -1.17489361194538     IErMin=16 ErrMin= 1.26D-08
 ErrMax= 1.26D-08  0.00D+00 EMaxC= 1.00D-01 BMatC= 4.09D-15 BMatP= 2.31D-14
 IDIUse=1 WtCom= 1.00D+00 WtEn= 0.00D+00
 Large coefficients: NSaved= 16 BigCof=    0.00 CofMax=   10.00 Det=-1.26D-15
 Inversion failed.  Reducing to 15 matrices.
 Coeff-Com:  0.219D-04-0.259D-04-0.727D-04 0.113D-03 0.274D-03-0.103D-02
 Coeff-Com:  0.123D-02 0.113D-02-0.739D-02 0.190D-01-0.331D-01 0.224D-01
 Coeff-Com:  0.127D+00-0.662D+00 0.153D+01
 Coeff:      0.219D-04-0.259D-04-0.727D-04 0.113D-03 0.274D-03-0.103D-02
 Coeff:      0.123D-02 0.113D-02-0.739D-02 0.190D-01-0.331D-01 0.224D-01
 Coeff:      0.127D+00-0.662D+00 0.153D+01
 Gap=     0.166 Goal=   None    Shift=    0.000
 RMSDP=1.47D-08 MaxDP=1.39D-07 DE=-4.55D-13 OVMax= 2.56D-07

 Cycle  30  Pass 1  IDiag  3:
 E= -1.17489361194549     Delta-E=       -0.000000000000 Rises=F Damp=F
 DIIS: error= 6.88D-09 at cycle  30 NSaved=  16.
 NSaved=16 IEnMin=16 EnMin= -1.17489361194549     IErMin=16 ErrMin= 6.88D-09
 ErrMax= 6.88D-09  0.00D+00 EMaxC= 1.00D-01 BMatC= 1.20D-15 BMatP= 4.09D-15
 IDIUse=1 WtCom= 1.00D+00 WtEn= 0.00D+00
 Large coefficients: NSaved= 16 BigCof=    0.00 CofMax=   10.00 Det=-3.01D-16
 Inversion failed.  Reducing to 15 matrices.
 Coeff-Com: -0.108D-04 0.406D-04-0.181D-03 0.373D-03-0.611D-03 0.103D-02
 Coeff-Com: -0.231D-02 0.410D-02-0.726D-02 0.182D-01-0.507D-01 0.769D-01
 Coeff-Com:  0.458D-01-0.716D+00 0.163D+01
 Coeff:     -0.108D-04 0.406D-04-0.181D-03 0.373D-03-0.611D-03 0.103D-02
 Coeff:     -0.231D-02 0.410D-02-0.726D-02 0.182D-01-0.507D-01 0.769D-01
 Coeff:      0.458D-01-0.716D+00 0.163D+01
 Gap=     0.166 Goal=   None    Shift=    0.000
 RMSDP=9.13D-09 MaxDP=7.10D-08 DE=-1.14D-13 OVMax= 1.35D-07

 Cycle  31  Pass 2  IDiag  1:
 SCF Done:  E(RPM6) =  -1.17489361195     A.U. after   31 cycles
            NFock= 30  Conv=0.91D-08     -V/T= 0.9880
 KE=-9.789627893481D+01 PE=-3.882451290324D+02 EE= 2.155303561456D+02
 Leave Link  502 at Wed Jan 12 16:08:52 2022, MaxMem=   402653184 cpu:             192.7 elap:              32.5
 (Enter /work/01114/jfonner/frontera/gaussian/16rC.01/g16/l601.exe)
 Copying SCF densities to generalized density rwf, IOpCl= 0 IROHF=0.

 **********************************************************************

            Population analysis using the SCF Density.

 **********************************************************************

 Alpha  occ. eigenvalues --   -1.68300  -1.64326  -1.57908  -1.56627  -1.51520
 Alpha  occ. eigenvalues --   -1.42767  -1.33746  -1.27546  -1.20668  -1.13968
 Alpha  occ. eigenvalues --   -1.08397  -1.06624  -1.03696  -1.02690  -1.01890
 Alpha  occ. eigenvalues --   -0.96657  -0.95398  -0.95026  -0.91079  -0.89063
 Alpha  occ. eigenvalues --   -0.85862  -0.83921  -0.79320  -0.77035
 Alpha virt. eigenvalues --   -0.61749  -0.53584  -0.52612  -0.48672  -0.47710
 Alpha virt. eigenvalues --   -0.46482  -0.43714  -0.38964  -0.38625  -0.37741
 Alpha virt. eigenvalues --   -0.36389  -0.35543  -0.34934  -0.31450  -0.28316
 Alpha virt. eigenvalues --   -0.27978  -0.26394  -0.24116  -0.23158  -0.18785
          Condensed to atoms (all electrons):
               1          2          3          4          5          6
     1  C    3.514768   0.000000   0.000000   0.000000   0.000000   0.000000
     2  O    0.000000   6.017548   0.000000   0.000000   0.000000   0.000000
     3  N    0.000000   0.000000   5.066357   0.000000   0.000000   0.000000
     4  C    0.000000   0.000000   0.000000   3.710780   0.000000   0.000000
     5  C    0.000000   0.000000   0.000000   0.000000   3.751890   0.000000
     6  O    0.000000   0.000000   0.000000   0.000000   0.000000   6.001904
     7  N    0.000000   0.000000   0.000000   0.000000   0.000000   0.000000
     8  C    0.000000   0.000000   0.000000   0.000000   0.000000   0.000000
     9  C    0.000000   0.000000   0.000000   0.000000   0.000000   0.000000
    10  C    0.000000   0.000000   0.000000   0.000000   0.000000   0.000000
    11  H    0.000000   0.000000   0.000000   0.000000   0.000000   0.000000
    12  H    0.000000   0.000000   0.000000   0.000000   0.000000   0.000000
    13  H    0.000000   0.000000   0.000000   0.000000   0.000000   0.000000
    14  H    0.000000   0.000000   0.000000   0.000000   0.000000   0.000000
               7          8          9         10         11         12
     1  C    0.000000   0.000000   0.000000   0.000000   0.000000   0.000000
     2  O    0.000000   0.000000   0.000000   0.000000   0.000000   0.000000
     3  N    0.000000   0.000000   0.000000   0.000000   0.000000   0.000000
     4  C    0.000000   0.000000   0.000000   0.000000   0.000000   0.000000
     5  C    0.000000   0.000000   0.000000   0.000000   0.000000   0.000000
     6  O    0.000000   0.000000   0.000000   0.000000   0.000000   0.000000
     7  N    5.045757   0.000000   0.000000   0.000000   0.000000   0.000000
     8  C    0.000000   3.603465   0.000000   0.000000   0.000000   0.000000
     9  C    0.000000   0.000000   4.478268   0.000000   0.000000   0.000000
    10  C    0.000000   0.000000   0.000000   2.891889   0.000000   0.000000
    11  H    0.000000   0.000000   0.000000   0.000000   1.006881   0.000000
    12  H    0.000000   0.000000   0.000000   0.000000   0.000000   1.502050
    13  H    0.000000   0.000000   0.000000   0.000000   0.000000   0.000000
    14  H    0.000000   0.000000   0.000000   0.000000   0.000000   0.000000
              13         14
     1  C    0.000000   0.000000
     2  O    0.000000   0.000000
     3  N    0.000000   0.000000
     4  C    0.000000   0.000000
     5  C    0.000000   0.000000
     6  O    0.000000   0.000000
     7  N    0.000000   0.000000
     8  C    0.000000   0.000000
     9  C    0.000000   0.000000
    10  C    0.000000   0.000000
    11  H    0.000000   0.000000
    12  H    0.000000   0.000000
    13  H    0.796541   0.000000
    14  H    0.000000   0.611904
 Mulliken charges:
               1
     1  C    0.485232
     2  O   -0.017548
     3  N   -0.066357
     4  C    0.289220
     5  C    0.248110
     6  O   -0.001904
     7  N   -0.045757
     8  C    0.396535
     9  C   -0.478268
    10  C    1.108111
    11  H   -0.006881
    12  H   -0.502050
    13  H    0.203459
    14  H    0.388096
 Sum of Mulliken charges =   2.00000
 Mulliken charges with hydrogens summed into heavy atoms:
               1
     1  C    0.478351
     2  O   -0.017548
     3  N   -0.066357
     4  C    0.289220
     5  C    0.248110
     6  O   -0.001904
     7  N   -0.045757
     8  C    0.988091
     9  C   -0.980317
    10  C    1.108111
 Charge=              2.0000 electrons
 Dipole moment (field-independent basis, Debye):
    X=             32.5738    Y=              5.8467    Z=            145.8269  Tot=            149.5350
 N-N= 2.694361582097D+02 E-N=-3.882451290451D+02  KE=-9.789627893481D+01
 Leave Link  601 at Wed Jan 12 16:08:52 2022, MaxMem=   402653184 cpu:               2.5 elap:               0.7
 (Enter /work/01114/jfonner/frontera/gaussian/16rC.01/g16/l9999.exe)

 Test job not archived.
 1\1\GINC-C204-029\SP\RPM6\ZDO\C6H4N2O2(2+)\SA748948\12-Jan-2022\0\\#p 
 int=acc2e=12 pm6 charge nosymm\\Atom number=14\\2,1\C,0,4.271,0.817,11
 .296\O,0,4.359,2.033,11.367\N,0,3.492,0.104,12.073\C,0,2.585,0.677,13.
 085\C,0,3.006,0.047,14.361\O,0,2.958,-1.169,14.515\N,0,3.481,0.887,15.
 262\C,0,4.163,0.392,16.442\C,0,1.127,0.33,12.827\C,0,0.248,0.675,14.03
 8\H,0,4.84396452,0.24331567,10.59778947\H,0,0.80275271,0.84321259,11.9
 4587769\H,0,3.64026211,0.79731639,17.28304918\H,0,5.20408592,0.6363991
 9,16.405818\\Version=ES64L-G16RevC.01\HF=-1.1748936\RMSD=9.126e-09\Dip
 ole=1.1099443,0.4550589,6.2446384\PG=C01 [X(C6H4N2O2)]\\@


 HERE WE GO......
 SLIDING DOWN THE RAZOR BLADE OF LIFE......
                                 TOM LEHRER
 Job cpu time:       0 days  0 hours  4 minutes 17.9 seconds.
 Elapsed time:       0 days  0 hours  0 minutes 45.8 seconds.
 File lengths (MBytes):  RWF=      6 Int=      0 D2E=      0 Chk=      2 Scr=      1
 Normal termination of Gaussian 16 at Wed Jan 12 16:08:53 2022.
