 Entering Gaussian System, Link 0=g16
 Input=4znn_01_gebf_pm6_4.gjf
 Output=4znn_01_gebf_pm6_4.log
 Initial command:
 /work/01114/jfonner/frontera/gaussian/16rC.01/g16/l1.exe "/scratch1/08249/sa748948/lsqc/36120880/Gau-187802.inp" -scrdir="/scratch1/08249/sa748948/lsqc/36120880/"
 Entering Link 1 = /work/01114/jfonner/frontera/gaussian/16rC.01/g16/l1.exe PID=    187812.
  
 Copyright (c) 1988-2019, Gaussian, Inc.  All Rights Reserved.
  
 This is part of the Gaussian(R) 16 program.  It is based on
 the Gaussian(R) 09 system (copyright 2009, Gaussian, Inc.),
 the Gaussian(R) 03 system (copyright 2003, Gaussian, Inc.),
 the Gaussian(R) 98 system (copyright 1998, Gaussian, Inc.),
 the Gaussian(R) 94 system (copyright 1995, Gaussian, Inc.),
 the Gaussian 92(TM) system (copyright 1992, Gaussian, Inc.),
 the Gaussian 90(TM) system (copyright 1990, Gaussian, Inc.),
 the Gaussian 88(TM) system (copyright 1988, Gaussian, Inc.),
 the Gaussian 86(TM) system (copyright 1986, Carnegie Mellon
 University), and the Gaussian 82(TM) system (copyright 1983,
 Carnegie Mellon University). Gaussian is a federally registered
 trademark of Gaussian, Inc.
  
 This software contains proprietary and confidential information,
 including trade secrets, belonging to Gaussian, Inc.
  
 This software is provided under written license and may be
 used, copied, transmitted, or stored only in accord with that
 written license.
  
 The following legend is applicable only to US Government
 contracts under FAR:
  
                    RESTRICTED RIGHTS LEGEND
  
 Use, reproduction and disclosure by the US Government is
 subject to restrictions as set forth in subparagraphs (a)
 and (c) of the Commercial Computer Software - Restricted
 Rights clause in FAR 52.227-19.
  
 Gaussian, Inc.
 340 Quinnipiac St., Bldg. 40, Wallingford CT 06492
  
  
 ---------------------------------------------------------------
 Warning -- This program may not be used in any manner that
 competes with the business of Gaussian, Inc. or will provide
 assistance to any competitor of Gaussian, Inc.  The licensee
 of this program is prohibited from giving any competitor of
 Gaussian, Inc. access to this program.  By using this program,
 the user acknowledges that Gaussian, Inc. is engaged in the
 business of creating and licensing software in the field of
 computational chemistry and represents and warrants to the
 licensee that it is not a competitor of Gaussian, Inc. and that
 it will not use this program in any manner prohibited above.
 ---------------------------------------------------------------
  

 Cite this work as:
 Gaussian 16, Revision C.01,
 M. J. Frisch, G. W. Trucks, H. B. Schlegel, G. E. Scuseria, 
 M. A. Robb, J. R. Cheeseman, G. Scalmani, V. Barone, 
 G. A. Petersson, H. Nakatsuji, X. Li, M. Caricato, A. V. Marenich, 
 J. Bloino, B. G. Janesko, R. Gomperts, B. Mennucci, H. P. Hratchian, 
 J. V. Ortiz, A. F. Izmaylov, J. L. Sonnenberg, D. Williams-Young, 
 F. Ding, F. Lipparini, F. Egidi, J. Goings, B. Peng, A. Petrone, 
 T. Henderson, D. Ranasinghe, V. G. Zakrzewski, J. Gao, N. Rega, 
 G. Zheng, W. Liang, M. Hada, M. Ehara, K. Toyota, R. Fukuda, 
 J. Hasegawa, M. Ishida, T. Nakajima, Y. Honda, O. Kitao, H. Nakai, 
 T. Vreven, K. Throssell, J. A. Montgomery, Jr., J. E. Peralta, 
 F. Ogliaro, M. J. Bearpark, J. J. Heyd, E. N. Brothers, K. N. Kudin, 
 V. N. Staroverov, T. A. Keith, R. Kobayashi, J. Normand, 
 K. Raghavachari, A. P. Rendell, J. C. Burant, S. S. Iyengar, 
 J. Tomasi, M. Cossi, J. M. Millam, M. Klene, C. Adamo, R. Cammi, 
 J. W. Ochterski, R. L. Martin, K. Morokuma, O. Farkas, 
 J. B. Foresman, and D. J. Fox, Gaussian, Inc., Wallingford CT, 2019.
 
 ******************************************
 Gaussian 16:  ES64L-G16RevC.01  3-Jul-2019
                 5-Jan-2022 
 ******************************************
 %chk=4znn_01_gebf_pm6_4.chk
 %nproc=56
 Will use up to   56 processors via shared memory.
 %mem=3gb
 ---------------------------------
 #p int=acc2e=12 pm6 charge nosymm
 ---------------------------------
 1/18=10,28=-2,38=1,125=101,172=1/1;
 2/12=2,15=1,17=6,18=5,40=1/2;
 3/5=2,25=1,27=12,41=3900000/1,2,3;
 4/35=1/1;
 5/5=2,35=1,38=5,87=12/2;
 6/7=2,8=2,9=2,10=2,28=1,87=12/1;
 99/5=1,9=1/99;
 Leave Link    1 at Wed Jan  5 15:21:27 2022, MaxMem=   402653184 cpu:               2.8 elap:               0.5
 (Enter /work/01114/jfonner/frontera/gaussian/16rC.01/g16/l101.exe)
 --------------
 Atom number=17
 --------------
 Symbolic Z-matrix:
 Charge =  1 Multiplicity = 1
 c                     0.84     -0.854     6.792 
 o                     1.027    -2.022     6.72 
 n                     1.81      0.002     7.023 
 c                     3.191    -0.429     7.101 
 c                     3.911     0.258     8.229 
 o                     4.064     1.478     8.228 
 n                     4.364    -0.527     9.189 
 c                     5.067     0.02      10.326 
 c                     3.871    -0.103     5.748 
 c                     4.271     0.817     11.296 
 o                     4.359     2.033     11.367 
 n                     3.492     0.104     12.073 
 c                     2.585     0.677     13.085 
 h                    -0.15541  -0.4712    6.70529 
 h                     4.86075  -0.49142   5.62788 
 h                     2.88855   0.22276   14.00501 
 h                     1.55916   0.43285   12.90347 
 
 ITRead=  0  0  0  0  0  0  0  0  0  0  0  0  0  0  0  0  0
 MicOpt= -1 -1 -1 -1 -1 -1 -1 -1 -1 -1 -1 -1 -1 -1 -1 -1 -1
 NAtoms=     17 NQM=       17 NQMF=       0 NMMI=      0 NMMIF=      0
                NMic=       0 NMicF=      0.
                    Isotopes and Nuclear Properties:
 (Nuclear quadrupole moments (NQMom) in fm**2, nuclear magnetic moments (NMagM)
  in nuclear magnetons)

  Atom         1           2           3           4           5           6           7           8           9          10
 IAtWgt=          12          16          14          12          12          16          14          12          12          12
 AtmWgt=  12.0000000  15.9949146  14.0030740  12.0000000  12.0000000  15.9949146  14.0030740  12.0000000  12.0000000  12.0000000
 NucSpn=           0           0           2           0           0           0           2           0           0           0
 AtZEff=  -0.0000000  -0.0000000  -0.0000000  -0.0000000  -0.0000000  -0.0000000  -0.0000000  -0.0000000  -0.0000000  -0.0000000
 NQMom=    0.0000000   0.0000000   2.0440000   0.0000000   0.0000000   0.0000000   2.0440000   0.0000000   0.0000000   0.0000000
 NMagM=    0.0000000   0.0000000   0.4037610   0.0000000   0.0000000   0.0000000   0.4037610   0.0000000   0.0000000   0.0000000
 AtZNuc=   6.0000000   8.0000000   7.0000000   6.0000000   6.0000000   8.0000000   7.0000000   6.0000000   6.0000000   6.0000000

  Atom        11          12          13          14          15          16          17
 IAtWgt=          16          14          12           1           1           1           1
 AtmWgt=  15.9949146  14.0030740  12.0000000   1.0078250   1.0078250   1.0078250   1.0078250
 NucSpn=           0           2           0           1           1           1           1
 AtZEff=  -0.0000000  -0.0000000  -0.0000000  -0.0000000  -0.0000000  -0.0000000  -0.0000000
 NQMom=    0.0000000   2.0440000   0.0000000   0.0000000   0.0000000   0.0000000   0.0000000
 NMagM=    0.0000000   0.4037610   0.0000000   2.7928460   2.7928460   2.7928460   2.7928460
 AtZNuc=   8.0000000   7.0000000   6.0000000   1.0000000   1.0000000   1.0000000   1.0000000
 Background charge distribution read from input stream:
 Point Charges:
 XYZ=   -6.8150   -0.6680    1.6070 Q=    0.1840 A=    0.0000 R=    0.0000 C=    0.0000
 XYZ=   -5.7140    0.0020    2.3730 Q=    0.1690 A=    0.0000 R=    0.0000 C=    0.0000
 XYZ=   -4.3570   -0.6730    2.5880 Q=    0.1957 A=    0.0000 R=    0.0000 C=    0.0000
 XYZ=   -4.2120   -1.8700    2.4920 Q=   -0.4612 A=    0.0000 R=    0.0000 C=    0.0000
 XYZ=   -3.3810    0.1250    2.9530 Q=   -0.3003 A=    0.0000 R=    0.0000 C=    0.0000
 XYZ=   -2.0620   -0.3900    3.2740 Q=    0.2639 A=    0.0000 R=    0.0000 C=    0.0000
 XYZ=   -1.6360    0.1750    4.6000 Q=    0.1489 A=    0.0000 R=    0.0000 C=    0.0000
 XYZ=   -1.7440    1.3560    4.8620 Q=   -0.3095 A=    0.0000 R=    0.0000 C=    0.0000
 XYZ=   -0.9930   -0.0450    2.1970 Q=   -1.2213 A=    0.0000 R=    0.0000 C=    0.0000
 XYZ=    0.3900   -0.4880    2.6400 Q=    0.9359 A=    0.0000 R=    0.0000 C=    0.0000
 XYZ=   -1.3780   -0.6620    0.8970 Q=    0.8742 A=    0.0000 R=    0.0000 C=    0.0000
 XYZ=   -1.0950   -0.7000    5.4150 Q=   -0.4278 A=    0.0000 R=    0.0000 C=    0.0000
 XYZ=   -0.5720   -0.3110    6.6690 Q=    0.2444 A=    0.0000 R=    0.0000 C=    0.0000
 XYZ=   -1.4110   -0.9130    7.7970 Q=   -1.2093 A=    0.0000 R=    0.0000 C=    0.0000
 XYZ=   -0.7270   -0.6450    9.1230 Q=    0.9838 A=    0.0000 R=    0.0000 C=    0.0000
 XYZ=   -2.8000   -0.3490    7.7890 Q=    0.9737 A=    0.0000 R=    0.0000 C=    0.0000
 XYZ=    5.2470   -0.6430    5.5810 Q=   -0.4177 A=    0.0000 R=    0.0000 C=    0.0000
 XYZ=    5.8610   -0.6890    4.3530 Q=   -0.2968 A=    0.0000 R=    0.0000 C=    0.0000
 XYZ=    6.1080   -1.1970    6.4480 Q=    0.2630 A=    0.0000 R=    0.0000 C=    0.0000
 XYZ=    7.0590   -1.2270    4.4820 Q=    0.6103 A=    0.0000 R=    0.0000 C=    0.0000
 XYZ=    7.2390   -1.5230    5.7510 Q=   -0.3347 A=    0.0000 R=    0.0000 C=    0.0000
 XYZ=    3.0060    0.0470   14.3610 Q=    0.2391 A=    0.0000 R=    0.0000 C=    0.0000
 XYZ=    2.9580   -1.1690   14.5150 Q=   -0.4626 A=    0.0000 R=    0.0000 C=    0.0000
 XYZ=    1.1270    0.3300   12.8270 Q=   -1.2217 A=    0.0000 R=    0.0000 C=    0.0000
 XYZ=    0.2480    0.6750   14.0380 Q=    0.9822 A=    0.0000 R=    0.0000 C=    0.0000
 XYZ=    0.6740    1.0470   11.5960 Q=    0.9278 A=    0.0000 R=    0.0000 C=    0.0000
 XYZ=    3.4810    0.8870   15.2620 Q=   -0.6284 A=    0.0000 R=    0.0000 C=    0.0000
 XYZ=    4.1630    0.3920   16.4420 Q=    0.1821 A=    0.0000 R=    0.0000 C=    0.0000
 XYZ=    3.4240    0.9650   17.6310 Q=    0.3166 A=    0.0000 R=    0.0000 C=    0.0000
 XYZ=    3.1360    2.1100   17.6120 Q=   -0.5694 A=    0.0000 R=    0.0000 C=    0.0000
 XYZ=    5.6880    0.7500   16.3890 Q=   -0.3175 A=    0.0000 R=    0.0000 C=    0.0000
 XYZ=    6.2640    0.1300   15.2360 Q=   -0.3082 A=    0.0000 R=    0.0000 C=    0.0000
 XYZ=    6.4200    0.2100   17.5690 Q=    0.9463 A=    0.0000 R=    0.0000 C=    0.0000
 XYZ=    3.1730    0.1290   18.6470 Q=   -0.5421 A=    0.0000 R=    0.0000 C=    0.0000
 XYZ=    2.5590    0.5160   19.9030 Q=    0.0236 A=    0.0000 R=    0.0000 C=    0.0000
 XYZ=    3.3500   -0.1220   21.0140 Q=    0.1847 A=    0.0000 R=    0.0000 C=    0.0000
 XYZ=    3.3660   -1.3390   21.1400 Q=   -0.4163 A=    0.0000 R=    0.0000 C=    0.0000
 XYZ=    1.1380   -0.0210   19.9830 Q=   -0.2907 A=    0.0000 R=    0.0000 C=    0.0000
 XYZ=    0.3930    0.3940   18.8240 Q=   -0.3415 A=    0.0000 R=    0.0000 C=    0.0000
 XYZ=    0.4860    0.5010   21.1670 Q=    0.7765 A=    0.0000 R=    0.0000 C=    0.0000
 XYZ=    4.0670    0.6880   21.7680 Q=   -0.6191 A=    0.0000 R=    0.0000 C=    0.0000
 XYZ=    4.8880    0.2050   22.8510 Q=    0.2833 A=    0.0000 R=    0.0000 C=    0.0000
 XYZ=    4.3500    0.7690   24.1740 Q=    0.1730 A=    0.0000 R=    0.0000 C=    0.0000
 XYZ=    4.1610    1.9810   24.2690 Q=   -0.2861 A=    0.0000 R=    0.0000 C=    0.0000
 XYZ=    6.3620    0.6140   22.6520 Q=   -1.1933 A=    0.0000 R=    0.0000 C=    0.0000
 XYZ=    7.1520    0.2970   23.8740 Q=    0.8585 A=    0.0000 R=    0.0000 C=    0.0000
 XYZ=    6.9530   -0.1210   21.4550 Q=    0.9590 A=    0.0000 R=    0.0000 C=    0.0000
 XYZ=    4.0650   -0.1200   25.1510 Q=   -0.4907 A=    0.0000 R=    0.0000 C=    0.0000
 XYZ=    3.7200    0.3130   26.5150 Q=   -0.3576 A=    0.0000 R=    0.0000 C=    0.0000
 XYZ=    4.9410    0.1400   27.4200 Q=    0.0549 A=    0.0000 R=    0.0000 C=    0.0000
 XYZ=    5.7140   -0.8090   27.2870 Q=   -0.0565 A=    0.0000 R=    0.0000 C=    0.0000
 XYZ=    2.4990   -0.4220   27.0620 Q=    1.1023 A=    0.0000 R=    0.0000 C=    0.0000
 XYZ=    5.2500    0.9550   28.2940 Q=    0.3115 A=    0.0000 R=    0.0000 C=    0.0000
 Pt Chg Charge=              1.0879 electrons
 Pt Chg Dipole moment (Debye):
    X=             -3.1455    Y=             -5.4608    Z=             82.0967  Tot=             82.3382
 Pt Chg Quadrupole moment (Debye-Ang):
   XX=            247.4546   YY=            -28.0551   ZZ=           2461.5034
   XY=            -44.4995   XZ=            258.4217   YZ=           -103.0963
 Pt Chg Traceless Quadrupole moment (Debye-Ang):
   XX=           -646.1797   YY=           -921.6894   ZZ=           1567.8691
   XY=            -44.4995   XZ=            258.4217   YZ=           -103.0963
 Pt Chg Octapole moment (Debye-Ang**2):
  XXX=           1602.2018  YYY=            -12.2521  ZZZ=          74811.5714  XYY=            -48.9117
  XXY=           -181.4171  XXZ=           4771.5414  XZZ=          10363.8604  YZZ=          -2718.2378
  YYZ=           -436.9869  XYZ=           -740.5527
 Pt Chg Hexadecapole moment (Debye-Ang**3):
 XXXX=          19302.6261 YYYY=           -114.7244 ZZZZ=        2228930.7231 XXXY=          -1060.9368
 XXXZ=          41581.2453 YYYX=           -164.1062 YYYZ=           -462.6047 ZZZX=         321224.6909
 ZZZY=         -65955.0226 XXYY=           -426.6875 XXZZ=         113807.3759 YYZZ=          -8060.4679
 XXYZ=          -3136.0659 YYXZ=          -1595.5547 ZZXY=         -14469.6020
 Leave Link  101 at Wed Jan  5 15:21:28 2022, MaxMem=   402653184 cpu:               7.2 elap:               1.2
 (Enter /work/01114/jfonner/frontera/gaussian/16rC.01/g16/l202.exe)
                          Input orientation:                          
 ---------------------------------------------------------------------
 Center     Atomic      Atomic             Coordinates (Angstroms)
 Number     Number       Type             X           Y           Z
 ---------------------------------------------------------------------
      1          6           0        0.840000   -0.854000    6.792000
      2          8           0        1.027000   -2.022000    6.720000
      3          7           0        1.810000    0.002000    7.023000
      4          6           0        3.191000   -0.429000    7.101000
      5          6           0        3.911000    0.258000    8.229000
      6          8           0        4.064000    1.478000    8.228000
      7          7           0        4.364000   -0.527000    9.189000
      8          6           0        5.067000    0.020000   10.326000
      9          6           0        3.871000   -0.103000    5.748000
     10          6           0        4.271000    0.817000   11.296000
     11          8           0        4.359000    2.033000   11.367000
     12          7           0        3.492000    0.104000   12.073000
     13          6           0        2.585000    0.677000   13.085000
     14          1           0       -0.155413   -0.471203    6.705289
     15          1           0        4.860748   -0.491419    5.627878
     16          1           0        2.888547    0.222761   14.005014
     17          1           0        1.559163    0.432854   12.903473
 ---------------------------------------------------------------------
                    Distance matrix (angstroms):
                    1          2          3          4          5
     1  C    0.000000
     2  O    1.185064   0.000000
     3  N    1.314153   2.191227   0.000000
     4  C    2.409005   2.713983   1.448795   0.000000
     5  C    3.568270   3.974033   2.436016   1.504245   0.000000
     6  O    4.230189   4.873134   2.951460   2.380947   1.229557
     7  N    4.274472   4.412092   3.390326   2.396931   1.320240
     8  C    5.578581   5.787452   4.638769   3.757872   2.406323
     9  C    3.292552   3.565905   2.425772   1.548963   2.507445
    10  C    5.903390   6.286751   4.997927   4.507432   3.138243
    11  O    6.453585   7.009983   5.430718   5.062057   3.632957
    12  N    5.986638   6.265039   5.323723   5.009538   3.869834
    13  C    6.707521   7.086973   6.148503   6.115450   5.051195
    14  H    1.070000   1.950202   2.046390   3.369993   4.403311
    15  H    4.201555   4.270016   3.390707   2.227565   2.868708
    16  H    7.575192   7.847021   7.068276   6.941303   5.865918
    17  H    6.286756   6.674193   5.901569   6.088873   5.235686
                    6          7          8          9         10
     6  O    0.000000
     7  N    2.243557   0.000000
     8  C    2.744700   1.444364   0.000000
     9  C    2.947407   3.501900   4.733247   0.000000
    10  C    3.145218   2.500887   1.486514   5.637970   0.000000
    11  O    3.201308   3.361147   2.374261   6.031070   1.221246
    12  N    4.122995   3.078311   2.353655   6.339725   1.311083
    13  C    5.139989   4.448963   3.768827   7.489577   2.462259
    14  H    4.890960   5.157231   6.373730   4.154995   6.505938
    15  H    3.357686   3.595777   4.730374   1.070000   5.846997
    16  H    6.027537   5.092455   4.280411   8.321636   3.098880
    17  H    5.406162   4.752446   4.372498   7.538735   3.175783
                   11         12         13         14         15
    11  O    0.000000
    12  N    2.229611   0.000000
    13  C    2.817328   1.474829   0.000000
    14  H    6.955754   6.515121   7.037680   0.000000
    15  H    6.289830   6.615708   7.883711   5.130604   0.000000
    16  H    3.521124   2.027545   1.070000   7.939349   8.635742
    17  H    3.572157   2.129246   1.070000   6.494196   8.042949
                   16         17
    16  H    0.000000
    17  H    1.739193   0.000000
 Symmetry turned off by external request.
 Stoichiometry    C7H4N3O3(1+)
 Framework group  C1[X(C7H4N3O3)]
 Deg. of freedom    45
 Full point group                 C1      NOp   1
 Rotational constants (GHZ):           1.4117695           0.4292374           0.3692049
 Leave Link  202 at Wed Jan  5 15:21:29 2022, MaxMem=   402653184 cpu:               2.8 elap:               0.5
 (Enter /work/01114/jfonner/frontera/gaussian/16rC.01/g16/l301.exe)
 Standard basis: VSTO-6G (5D, 7F)
 Ernie: Thresh=  0.10000D-02 Tol=  0.10000D-05 Strict=F.
  NNHCO=     0 NNPyr=     0 NCTC=     0               EPep=         0.000000000
    EC=       304.167537414  ECS=         4.235269023   EG=         0.347505262
   EHC=         0.001665191  EAt=       -82.231568766  AtH=         3.063403947
 EPDDG=         0.000000000  ECC=       308.751976890 EAtT=        85.294972712
    56 basis functions,   336 primitive gaussians,    56 cartesian basis functions
    32 alpha electrons       32 beta electrons
       nuclear repulsion energy       394.0469496028 Hartrees.
 IExCor=    0 DFT=F Ex=HF Corr=None ExCW=0 ScaHFX=  1.000000
 ScaDFX=  1.000000  1.000000  1.000000  1.000000 ScalE2=  1.000000  1.000000
 IRadAn=      5 IRanWt=     -1 IRanGd=            0 ICorTp=0 IEmpDi=  4
 Integral buffers will be    131072 words long.
 Regular integral format.
 Two-electron integral symmetry is turned off.
 Background charge distribution read from rwf.
 PtFMM for NChg=        70 BoxLen=    40.00 Levels= 1 LMax=20 SMax=    51.8 ICnFMM=     1:
 Self energy of the charges =        -3.5623487076 a.u.
 MM   energy of the charges =         0.0000000000 a.u.
 Nuclei-charges interaction =        -0.5978150800 a.u.
 Nuclear repulsion after external point charges =      389.8867858153 Hartrees.
 Leave Link  301 at Wed Jan  5 15:21:30 2022, MaxMem=   402653184 cpu:               4.5 elap:               0.9
 (Enter /work/01114/jfonner/frontera/gaussian/16rC.01/g16/l302.exe)
 Do NDO integrals.
 NPDir=0 NMtPBC=     1 NCelOv=     1 NCel=       1 NClECP=     1 NCelD=      1
         NCelK=      1 NCelE2=     1 NClLst=     1 CellRange=     0.0.
 One-electron integrals computed using PRISM.
 NBasis=    56 RedAO= F EigKep=  0.00D+00  NBF=    56
 NBsUse=    56 1.00D-04 EigRej=  0.00D+00 NBFU=    56
 Leave Link  302 at Wed Jan  5 15:21:34 2022, MaxMem=   402653184 cpu:              24.3 elap:               4.5
 (Enter /work/01114/jfonner/frontera/gaussian/16rC.01/g16/l303.exe)
 DipDrv:  MaxL=1.
 Leave Link  303 at Wed Jan  5 15:21:35 2022, MaxMem=   402653184 cpu:               3.4 elap:               0.6
 (Enter /work/01114/jfonner/frontera/gaussian/16rC.01/g16/l401.exe)
 Simple Huckel Guess.
 JPrj=0 DoOrth=F DoCkMO=F.
 Leave Link  401 at Wed Jan  5 15:21:37 2022, MaxMem=   402653184 cpu:              12.6 elap:               2.4
 (Enter /work/01114/jfonner/frontera/gaussian/16rC.01/g16/l502.exe)
 Keep J ints in memory in canonical form, NReq=868926.
 FoFCou: FMM=F IPFlag=           0 FMFlag=           0 FMFlg1=           0
         NFxFlg=           0 DoJE=F BraDBF=F KetDBF=F FulRan=T
         wScrn=  0.000000 ICntrl=       600 IOpCl=  2 I1Cent=           0 NGrid=           0
         NMat0=    1 NMatS0=    134 NMatT0=    0 NMatD0=    1 NMtDS0=    0 NMtDT0=    0
 Symmetry not used in FoFCou.
 Two-electron integral symmetry not used.
 Closed shell SCF:
 Using DIIS extrapolation, IDIIS=  1040.
 Overlap will be assumed to be unity.
 NGot=   402653184 LenX=   402574525 LenY=   402570948
 Requested convergence on RMS density matrix=1.00D-08 within 128 cycles.
 Requested convergence on MAX density matrix=1.00D-06.
 Requested convergence on             energy=1.00D-06.
 No special actions if energy rises.

 Cycle   1  Pass 1  IDiag  1:
 E= -2.63069664330732    
 DIIS: error= 7.86D-02 at cycle   1 NSaved=   1.
 NSaved= 1 IEnMin= 1 EnMin= -2.63069664330732     IErMin= 1 ErrMin= 7.86D-02
 ErrMax= 7.86D-02  0.00D+00 EMaxC= 1.00D-01 BMatC= 2.34D-01 BMatP= 2.34D-01
 IDIUse=3 WtCom= 2.14D-01 WtEn= 7.86D-01
 Coeff-Com:  0.100D+01
 Coeff-En:   0.100D+01
 Coeff:      0.100D+01
 GapD=    2.000 DampG=2.000 DampE=0.500 DampFc=1.0000 IDamp=-1.
 RMSDP=2.00D-02 MaxDP=2.44D-01              OVMax= 0.00D+00

 Cycle   2  Pass 1  IDiag  1:
 E= -3.50334761713003     Delta-E=       -0.872650973823 Rises=F Damp=F
 DIIS: error= 2.87D-02 at cycle   2 NSaved=   2.
 NSaved= 2 IEnMin= 2 EnMin= -3.50334761713003     IErMin= 2 ErrMin= 2.87D-02
 ErrMax= 2.87D-02  0.00D+00 EMaxC= 1.00D-01 BMatC= 3.48D-02 BMatP= 2.34D-01
 IDIUse=3 WtCom= 7.13D-01 WtEn= 2.87D-01
 Coeff-Com: -0.190D+00 0.119D+01
 Coeff-En:   0.000D+00 0.100D+01
 Coeff:     -0.135D+00 0.114D+01
 RMSDP=7.47D-03 MaxDP=7.36D-02 DE=-8.73D-01 OVMax= 0.00D+00

 Cycle   3  Pass 1  IDiag  1:
 E= -3.63382792352951     Delta-E=       -0.130480306399 Rises=F Damp=F
 DIIS: error= 7.18D-03 at cycle   3 NSaved=   3.
 NSaved= 3 IEnMin= 3 EnMin= -3.63382792352951     IErMin= 3 ErrMin= 7.18D-03
 ErrMax= 7.18D-03  0.00D+00 EMaxC= 1.00D-01 BMatC= 4.22D-03 BMatP= 3.48D-02
 IDIUse=3 WtCom= 9.28D-01 WtEn= 7.18D-02
 Coeff-Com: -0.787D-01-0.888D-01 0.117D+01
 Coeff-En:   0.000D+00 0.000D+00 0.100D+01
 Coeff:     -0.731D-01-0.825D-01 0.116D+01
 RMSDP=3.89D-03 MaxDP=3.18D-02 DE=-1.30D-01 OVMax= 0.00D+00

 Cycle   4  Pass 1  IDiag  3:
 E= -3.65803847319717     Delta-E=       -0.024210549668 Rises=F Damp=F
 DIIS: error= 3.20D-03 at cycle   4 NSaved=   4.
 NSaved= 4 IEnMin= 4 EnMin= -3.65803847319717     IErMin= 4 ErrMin= 3.20D-03
 ErrMax= 3.20D-03  0.00D+00 EMaxC= 1.00D-01 BMatC= 5.55D-04 BMatP= 4.22D-03
 IDIUse=3 WtCom= 9.68D-01 WtEn= 3.20D-02
 Coeff-Com:  0.377D-01-0.640D-01-0.297D+00 0.132D+01
 Coeff-En:   0.000D+00 0.000D+00 0.000D+00 0.100D+01
 Coeff:      0.365D-01-0.620D-01-0.288D+00 0.131D+01
 Gap=     0.166 Goal=   None    Shift=    0.000
 RMSDP=2.05D-03 MaxDP=1.81D-02 DE=-2.42D-02 OVMax= 3.60D-02

 Cycle   5  Pass 1  IDiag  3:
 E= -3.66330767246603     Delta-E=       -0.005269199269 Rises=F Damp=F
 DIIS: error= 2.03D-03 at cycle   5 NSaved=   5.
 NSaved= 5 IEnMin= 5 EnMin= -3.66330767246603     IErMin= 5 ErrMin= 2.03D-03
 ErrMax= 2.03D-03  0.00D+00 EMaxC= 1.00D-01 BMatC= 1.42D-04 BMatP= 5.55D-04
 IDIUse=3 WtCom= 9.80D-01 WtEn= 2.03D-02
 Coeff-Com: -0.107D-01 0.480D-01-0.259D-01-0.557D+00 0.155D+01
 Coeff-En:   0.000D+00 0.000D+00 0.000D+00 0.000D+00 0.100D+01
 Coeff:     -0.105D-01 0.470D-01-0.254D-01-0.545D+00 0.153D+01
 Gap=     0.173 Goal=   None    Shift=    0.000
 RMSDP=1.50D-03 MaxDP=1.37D-02 DE=-5.27D-03 OVMax= 3.11D-02

 Cycle   6  Pass 1  IDiag  3:
 E= -3.66537984673795     Delta-E=       -0.002072174272 Rises=F Damp=F
 DIIS: error= 1.05D-03 at cycle   6 NSaved=   6.
 NSaved= 6 IEnMin= 6 EnMin= -3.66537984673795     IErMin= 6 ErrMin= 1.05D-03
 ErrMax= 1.05D-03  0.00D+00 EMaxC= 1.00D-01 BMatC= 4.56D-05 BMatP= 1.42D-04
 IDIUse=3 WtCom= 9.90D-01 WtEn= 1.05D-02
 Coeff-Com: -0.646D-02 0.168D-02 0.855D-01-0.107D+00-0.753D+00 0.178D+01
 Coeff-En:   0.000D+00 0.000D+00 0.000D+00 0.000D+00 0.000D+00 0.100D+01
 Coeff:     -0.639D-02 0.167D-02 0.846D-01-0.106D+00-0.745D+00 0.177D+01
 Gap=     0.173 Goal=   None    Shift=    0.000
 RMSDP=1.27D-03 MaxDP=1.64D-02 DE=-2.07D-03 OVMax= 2.62D-02

 Cycle   7  Pass 1  IDiag  3:
 E= -3.66629881341595     Delta-E=       -0.000918966678 Rises=F Damp=F
 DIIS: error= 6.61D-04 at cycle   7 NSaved=   7.
 NSaved= 7 IEnMin= 7 EnMin= -3.66629881341595     IErMin= 7 ErrMin= 6.61D-04
 ErrMax= 6.61D-04  0.00D+00 EMaxC= 1.00D-01 BMatC= 1.23D-05 BMatP= 4.56D-05
 IDIUse=3 WtCom= 9.93D-01 WtEn= 6.61D-03
 Coeff-Com:  0.334D-02-0.526D-02-0.230D-01 0.969D-01 0.894D-01-0.804D+00
 Coeff-Com:  0.164D+01
 Coeff-En:   0.000D+00 0.000D+00 0.000D+00 0.000D+00 0.000D+00 0.000D+00
 Coeff-En:   0.100D+01
 Coeff:      0.331D-02-0.523D-02-0.228D-01 0.963D-01 0.888D-01-0.798D+00
 Coeff:      0.164D+01
 Gap=     0.174 Goal=   None    Shift=    0.000
 RMSDP=6.61D-04 MaxDP=1.25D-02 DE=-9.19D-04 OVMax= 1.19D-02

 Cycle   8  Pass 1  IDiag  3:
 E= -3.66655492522523     Delta-E=       -0.000256111809 Rises=F Damp=F
 DIIS: error= 5.04D-04 at cycle   8 NSaved=   8.
 NSaved= 8 IEnMin= 8 EnMin= -3.66655492522523     IErMin= 8 ErrMin= 5.04D-04
 ErrMax= 5.04D-04  0.00D+00 EMaxC= 1.00D-01 BMatC= 4.55D-06 BMatP= 1.23D-05
 IDIUse=3 WtCom= 9.95D-01 WtEn= 5.04D-03
 Coeff-Com: -0.838D-04 0.294D-02-0.140D-01-0.174D-01 0.177D+00-0.170D+00
 Coeff-Com: -0.628D+00 0.165D+01
 Coeff-En:   0.000D+00 0.000D+00 0.000D+00 0.000D+00 0.000D+00 0.000D+00
 Coeff-En:   0.000D+00 0.100D+01
 Coeff:     -0.834D-04 0.292D-02-0.139D-01-0.173D-01 0.176D+00-0.169D+00
 Coeff:     -0.625D+00 0.165D+01
 Gap=     0.174 Goal=   None    Shift=    0.000
 RMSDP=4.32D-04 MaxDP=9.71D-03 DE=-2.56D-04 OVMax= 9.01D-03

 Cycle   9  Pass 1  IDiag  3:
 E= -3.66666343479972     Delta-E=       -0.000108509574 Rises=F Damp=F
 DIIS: error= 3.63D-04 at cycle   9 NSaved=   9.
 NSaved= 9 IEnMin= 9 EnMin= -3.66666343479972     IErMin= 9 ErrMin= 3.63D-04
 ErrMax= 3.63D-04  0.00D+00 EMaxC= 1.00D-01 BMatC= 2.00D-06 BMatP= 4.55D-06
 IDIUse=3 WtCom= 9.96D-01 WtEn= 3.63D-03
 Coeff-Com: -0.953D-03 0.175D-02 0.917D-02-0.154D-01-0.129D+00 0.337D+00
 Coeff-Com: -0.103D+00-0.128D+01 0.218D+01
 Coeff-En:   0.000D+00 0.000D+00 0.000D+00 0.000D+00 0.000D+00 0.000D+00
 Coeff-En:   0.000D+00 0.000D+00 0.100D+01
 Coeff:     -0.949D-03 0.174D-02 0.913D-02-0.153D-01-0.129D+00 0.336D+00
 Coeff:     -0.103D+00-0.127D+01 0.218D+01
 Gap=     0.174 Goal=   None    Shift=    0.000
 RMSDP=4.26D-04 MaxDP=1.01D-02 DE=-1.09D-04 OVMax= 9.46D-03

 Cycle  10  Pass 1  IDiag  3:
 E= -3.66672779883294     Delta-E=       -0.000064364033 Rises=F Damp=F
 DIIS: error= 1.91D-04 at cycle  10 NSaved=  10.
 NSaved=10 IEnMin=10 EnMin= -3.66672779883294     IErMin=10 ErrMin= 1.91D-04
 ErrMax= 1.91D-04  0.00D+00 EMaxC= 1.00D-01 BMatC= 6.40D-07 BMatP= 2.00D-06
 IDIUse=3 WtCom= 9.98D-01 WtEn= 1.91D-03
 Coeff-Com: -0.202D-04 0.745D-03-0.263D-02-0.406D-02 0.558D-01-0.119D+00
 Coeff-Com:  0.114D+00 0.299D+00-0.120D+01 0.186D+01
 Coeff-En:   0.000D+00 0.000D+00 0.000D+00 0.000D+00 0.000D+00 0.000D+00
 Coeff-En:   0.000D+00 0.000D+00 0.000D+00 0.100D+01
 Coeff:     -0.201D-04 0.743D-03-0.262D-02-0.406D-02 0.557D-01-0.119D+00
 Coeff:      0.113D+00 0.299D+00-0.120D+01 0.186D+01
 Gap=     0.174 Goal=   None    Shift=    0.000
 RMSDP=2.48D-04 MaxDP=5.90D-03 DE=-6.44D-05 OVMax= 5.54D-03

 Cycle  11  Pass 1  IDiag  3:
 E= -3.66674682030708     Delta-E=       -0.000019021474 Rises=F Damp=F
 DIIS: error= 7.57D-05 at cycle  11 NSaved=  11.
 NSaved=11 IEnMin=11 EnMin= -3.66674682030708     IErMin=11 ErrMin= 7.57D-05
 ErrMax= 7.57D-05  0.00D+00 EMaxC= 1.00D-01 BMatC= 1.74D-07 BMatP= 6.40D-07
 IDIUse=1 WtCom= 1.00D+00 WtEn= 0.00D+00
 Coeff-Com: -0.958D-04-0.690D-04 0.140D-02-0.210D-02-0.643D-02 0.187D-01
 Coeff-Com: -0.479D-01 0.824D-01 0.966D-01-0.842D+00 0.170D+01
 Coeff:     -0.958D-04-0.690D-04 0.140D-02-0.210D-02-0.643D-02 0.187D-01
 Coeff:     -0.479D-01 0.824D-01 0.966D-01-0.842D+00 0.170D+01
 Gap=     0.175 Goal=   None    Shift=    0.000
 RMSDP=1.21D-04 MaxDP=2.76D-03 DE=-1.90D-05 OVMax= 2.59D-03

 Cycle  12  Pass 1  IDiag  3:
 E= -3.66675106433263     Delta-E=       -0.000004244026 Rises=F Damp=F
 DIIS: error= 2.62D-05 at cycle  12 NSaved=  12.
 NSaved=12 IEnMin=12 EnMin= -3.66675106433263     IErMin=12 ErrMin= 2.62D-05
 ErrMax= 2.62D-05  0.00D+00 EMaxC= 1.00D-01 BMatC= 3.80D-08 BMatP= 1.74D-07
 IDIUse=1 WtCom= 1.00D+00 WtEn= 0.00D+00
 Coeff-Com:  0.123D-04-0.194D-04-0.514D-04 0.694D-03-0.415D-03-0.278D-02
 Coeff-Com:  0.118D-01-0.252D-01 0.344D-01 0.757D-01-0.668D+00 0.157D+01
 Coeff:      0.123D-04-0.194D-04-0.514D-04 0.694D-03-0.415D-03-0.278D-02
 Coeff:      0.118D-01-0.252D-01 0.344D-01 0.757D-01-0.668D+00 0.157D+01
 Gap=     0.175 Goal=   None    Shift=    0.000
 RMSDP=4.64D-05 MaxDP=9.32D-04 DE=-4.24D-06 OVMax= 8.67D-04

 Cycle  13  Pass 1  IDiag  3:
 E= -3.66675178811431     Delta-E=       -0.000000723782 Rises=F Damp=F
 DIIS: error= 1.26D-05 at cycle  13 NSaved=  13.
 NSaved=13 IEnMin=13 EnMin= -3.66675178811431     IErMin=13 ErrMin= 1.26D-05
 ErrMax= 1.26D-05  0.00D+00 EMaxC= 1.00D-01 BMatC= 7.77D-09 BMatP= 3.80D-08
 IDIUse=1 WtCom= 1.00D+00 WtEn= 0.00D+00
 Coeff-Com:  0.109D-04-0.268D-04-0.856D-04 0.176D-03-0.472D-03 0.150D-02
 Coeff-Com: -0.540D-02 0.405D-02 0.524D-02-0.107D-01 0.161D+00-0.828D+00
 Coeff-Com:  0.167D+01
 Coeff:      0.109D-04-0.268D-04-0.856D-04 0.176D-03-0.472D-03 0.150D-02
 Coeff:     -0.540D-02 0.405D-02 0.524D-02-0.107D-01 0.161D+00-0.828D+00
 Coeff:      0.167D+01
 Gap=     0.175 Goal=   None    Shift=    0.000
 RMSDP=1.64D-05 MaxDP=2.11D-04 DE=-7.24D-07 OVMax= 3.22D-04

 Cycle  14  Pass 1  IDiag  3:
 E= -3.66675191310867     Delta-E=       -0.000000124994 Rises=F Damp=F
 DIIS: error= 4.83D-06 at cycle  14 NSaved=  14.
 NSaved=14 IEnMin=14 EnMin= -3.66675191310867     IErMin=14 ErrMin= 4.83D-06
 ErrMax= 4.83D-06  0.00D+00 EMaxC= 1.00D-01 BMatC= 1.47D-09 BMatP= 7.77D-09
 IDIUse=1 WtCom= 1.00D+00 WtEn= 0.00D+00
 Coeff-Com: -0.178D-05 0.193D-04-0.364D-04 0.144D-03-0.464D-03 0.417D-03
 Coeff-Com:  0.176D-02-0.240D-02-0.425D-02 0.860D-02-0.409D-01 0.302D+00
 Coeff-Com: -0.105D+01 0.179D+01
 Coeff:     -0.178D-05 0.193D-04-0.364D-04 0.144D-03-0.464D-03 0.417D-03
 Coeff:      0.176D-02-0.240D-02-0.425D-02 0.860D-02-0.409D-01 0.302D+00
 Coeff:     -0.105D+01 0.179D+01
 Gap=     0.175 Goal=   None    Shift=    0.000
 RMSDP=6.59D-06 MaxDP=7.39D-05 DE=-1.25D-07 OVMax= 1.25D-04

 Cycle  15  Pass 1  IDiag  3:
 E= -3.66675193583393     Delta-E=       -0.000000022725 Rises=F Damp=F
 DIIS: error= 1.95D-06 at cycle  15 NSaved=  15.
 NSaved=15 IEnMin=15 EnMin= -3.66675193583393     IErMin=15 ErrMin= 1.95D-06
 ErrMax= 1.95D-06  0.00D+00 EMaxC= 1.00D-01 BMatC= 2.21D-10 BMatP= 1.47D-09
 IDIUse=1 WtCom= 1.00D+00 WtEn= 0.00D+00
 Coeff-Com:  0.425D-05-0.253D-05-0.381D-04 0.721D-04 0.115D-03-0.428D-03
 Coeff-Com:  0.104D-03 0.658D-04 0.192D-02-0.368D-02 0.124D-01-0.844D-01
 Coeff-Com:  0.360D+00-0.944D+00 0.166D+01
 Coeff:      0.425D-05-0.253D-05-0.381D-04 0.721D-04 0.115D-03-0.428D-03
 Coeff:      0.104D-03 0.658D-04 0.192D-02-0.368D-02 0.124D-01-0.844D-01
 Coeff:      0.360D+00-0.944D+00 0.166D+01
 Gap=     0.175 Goal=   None    Shift=    0.000
 RMSDP=2.37D-06 MaxDP=3.38D-05 DE=-2.27D-08 OVMax= 5.81D-05

 Cycle  16  Pass 1  IDiag  3:
 E= -3.66675193935941     Delta-E=       -0.000000003525 Rises=F Damp=F
 DIIS: error= 1.23D-06 at cycle  16 NSaved=  16.
 NSaved=16 IEnMin=16 EnMin= -3.66675193935941     IErMin=16 ErrMin= 1.23D-06
 ErrMax= 1.23D-06  0.00D+00 EMaxC= 1.00D-01 BMatC= 4.67D-11 BMatP= 2.21D-10
 IDIUse=1 WtCom= 1.00D+00 WtEn= 0.00D+00
 Coeff-Com:  0.407D-06-0.278D-05 0.375D-05 0.181D-04-0.814D-04 0.461D-04
 Coeff-Com:  0.336D-03-0.485D-03-0.116D-04-0.611D-03-0.266D-02 0.320D-01
 Coeff-Com: -0.134D+00 0.390D+00-0.107D+01 0.179D+01
 Coeff:      0.407D-06-0.278D-05 0.375D-05 0.181D-04-0.814D-04 0.461D-04
 Coeff:      0.336D-03-0.485D-03-0.116D-04-0.611D-03-0.266D-02 0.320D-01
 Coeff:     -0.134D+00 0.390D+00-0.107D+01 0.179D+01
 Gap=     0.175 Goal=   None    Shift=    0.000
 RMSDP=1.22D-06 MaxDP=2.02D-05 DE=-3.53D-09 OVMax= 3.62D-05

 Cycle  17  Pass 1  IDiag  3:
 E= -3.66675194024515     Delta-E=       -0.000000000886 Rises=F Damp=F
 DIIS: error= 6.63D-07 at cycle  17 NSaved=  17.
 NSaved=17 IEnMin=17 EnMin= -3.66675194024515     IErMin=17 ErrMin= 6.63D-07
 ErrMax= 6.63D-07  0.00D+00 EMaxC= 1.00D-01 BMatC= 1.17D-11 BMatP= 4.67D-11
 IDIUse=1 WtCom= 1.00D+00 WtEn= 0.00D+00
 Coeff-Com:  0.218D-06 0.402D-06-0.672D-07-0.691D-05 0.593D-04-0.117D-03
 Coeff-Com: -0.352D-05 0.213D-03-0.334D-03 0.694D-03 0.611D-05-0.631D-02
 Coeff-Com:  0.214D-01-0.690D-01 0.320D+00-0.107D+01 0.181D+01
 Coeff:      0.218D-06 0.402D-06-0.672D-07-0.691D-05 0.593D-04-0.117D-03
 Coeff:     -0.352D-05 0.213D-03-0.334D-03 0.694D-03 0.611D-05-0.631D-02
 Coeff:      0.214D-01-0.690D-01 0.320D+00-0.107D+01 0.181D+01
 Gap=     0.175 Goal=   None    Shift=    0.000
 RMSDP=7.07D-07 MaxDP=1.21D-05 DE=-8.86D-10 OVMax= 2.22D-05

 Cycle  18  Pass 1  IDiag  3:
 E= -3.66675194048827     Delta-E=       -0.000000000243 Rises=F Damp=F
 DIIS: error= 2.72D-07 at cycle  18 NSaved=  18.
 NSaved=18 IEnMin=18 EnMin= -3.66675194048827     IErMin=18 ErrMin= 2.72D-07
 ErrMax= 2.72D-07  0.00D+00 EMaxC= 1.00D-01 BMatC= 2.71D-12 BMatP= 1.17D-11
 IDIUse=1 WtCom= 1.00D+00 WtEn= 0.00D+00
 Coeff-Com:  0.358D-06-0.113D-05 0.107D-06-0.688D-06 0.230D-04-0.705D-04
 Coeff-Com:  0.125D-03-0.153D-03 0.178D-03-0.280D-03 0.200D-03 0.635D-03
 Coeff-Com: -0.289D-03-0.113D-01 0.402D-01 0.518D-01-0.677D+00 0.160D+01
 Coeff:      0.358D-06-0.113D-05 0.107D-06-0.688D-06 0.230D-04-0.705D-04
 Coeff:      0.125D-03-0.153D-03 0.178D-03-0.280D-03 0.200D-03 0.635D-03
 Coeff:     -0.289D-03-0.113D-01 0.402D-01 0.518D-01-0.677D+00 0.160D+01
 Gap=     0.175 Goal=   None    Shift=    0.000
 RMSDP=3.45D-07 MaxDP=5.79D-06 DE=-2.43D-10 OVMax= 1.08D-05

 Cycle  19  Pass 1  IDiag  3:
 E= -3.66675194053869     Delta-E=       -0.000000000050 Rises=F Damp=F
 DIIS: error= 8.03D-08 at cycle  19 NSaved=  19.
 NSaved=19 IEnMin=19 EnMin= -3.66675194053869     IErMin=19 ErrMin= 8.03D-08
 ErrMax= 8.03D-08  0.00D+00 EMaxC= 1.00D-01 BMatC= 4.83D-13 BMatP= 2.71D-12
 IDIUse=1 WtCom= 1.00D+00 WtEn= 0.00D+00
 Coeff-Com:  0.615D-07-0.462D-06 0.103D-05 0.712D-06-0.682D-06-0.177D-05
 Coeff-Com: -0.948D-05 0.621D-04-0.864D-04 0.235D-04 0.159D-03-0.257D-03
 Coeff-Com:  0.823D-04 0.235D-02-0.194D-01 0.554D-01 0.639D-02-0.537D+00
 Coeff-Com:  0.149D+01
 Coeff:      0.615D-07-0.462D-06 0.103D-05 0.712D-06-0.682D-06-0.177D-05
 Coeff:     -0.948D-05 0.621D-04-0.864D-04 0.235D-04 0.159D-03-0.257D-03
 Coeff:      0.823D-04 0.235D-02-0.194D-01 0.554D-01 0.639D-02-0.537D+00
 Coeff:      0.149D+01
 Gap=     0.175 Goal=   None    Shift=    0.000
 RMSDP=1.31D-07 MaxDP=2.01D-06 DE=-5.04D-11 OVMax= 3.82D-06

 Cycle  20  Pass 1  IDiag  3:
 E= -3.66675194054579     Delta-E=       -0.000000000007 Rises=F Damp=F
 DIIS: error= 2.34D-08 at cycle  20 NSaved=  20.
 NSaved=20 IEnMin=20 EnMin= -3.66675194054579     IErMin=20 ErrMin= 2.34D-08
 ErrMax= 2.34D-08  0.00D+00 EMaxC= 1.00D-01 BMatC= 6.99D-14 BMatP= 4.83D-13
 IDIUse=1 WtCom= 1.00D+00 WtEn= 0.00D+00
 Coeff-Com:  0.208D-07-0.969D-07 0.237D-06 0.217D-06-0.297D-05 0.450D-05
 Coeff-Com: -0.310D-06-0.434D-05 0.364D-05-0.200D-04 0.607D-04-0.103D-03
 Coeff-Com:  0.313D-03-0.118D-02 0.333D-02-0.620D-02 0.866D-02 0.660D-01
 Coeff-Com: -0.520D+00 0.145D+01
 Coeff:      0.208D-07-0.969D-07 0.237D-06 0.217D-06-0.297D-05 0.450D-05
 Coeff:     -0.310D-06-0.434D-05 0.364D-05-0.200D-04 0.607D-04-0.103D-03
 Coeff:      0.313D-03-0.118D-02 0.333D-02-0.620D-02 0.866D-02 0.660D-01
 Coeff:     -0.520D+00 0.145D+01
 Gap=     0.175 Goal=   None    Shift=    0.000
 RMSDP=4.07D-08 MaxDP=4.97D-07 DE=-7.11D-12 OVMax= 1.00D-06

 Cycle  21  Pass 1  IDiag  3:
 E= -3.66675194054699     Delta-E=       -0.000000000001 Rises=F Damp=F
 DIIS: error= 1.20D-08 at cycle  21 NSaved=  20.
 NSaved=20 IEnMin=20 EnMin= -3.66675194054699     IErMin=20 ErrMin= 1.20D-08
 ErrMax= 1.20D-08  0.00D+00 EMaxC= 1.00D-01 BMatC= 1.12D-14 BMatP= 6.99D-14
 IDIUse=1 WtCom= 1.00D+00 WtEn= 0.00D+00
 Large coefficients: NSaved= 20 BigCof=    0.00 CofMax=   10.00 Det=-6.88D-15
 Inversion failed.  Reducing to 19 matrices.
 Large coefficients: NSaved= 19 BigCof=    0.00 CofMax=   10.00 Det=-6.88D-15
 Inversion failed.  Reducing to 18 matrices.
 Large coefficients: NSaved= 18 BigCof=    0.00 CofMax=   10.00 Det=-6.89D-15
 Inversion failed.  Reducing to 17 matrices.
 Large coefficients: NSaved= 17 BigCof=    0.00 CofMax=   10.00 Det=-6.89D-15
 Inversion failed.  Reducing to 16 matrices.
 Large coefficients: NSaved= 16 BigCof=    0.00 CofMax=   10.00 Det=-6.90D-15
 Inversion failed.  Reducing to 15 matrices.
 Coeff-Com: -0.568D-06 0.481D-05-0.995D-05 0.171D-04-0.489D-04 0.108D-03
 Coeff-Com: -0.216D-03 0.631D-03-0.175D-02 0.215D-02 0.958D-03-0.146D-01
 Coeff-Com:  0.126D+00-0.670D+00 0.156D+01
 Coeff:     -0.568D-06 0.481D-05-0.995D-05 0.171D-04-0.489D-04 0.108D-03
 Coeff:     -0.216D-03 0.631D-03-0.175D-02 0.215D-02 0.958D-03-0.146D-01
 Coeff:      0.126D+00-0.670D+00 0.156D+01
 Gap=     0.175 Goal=   None    Shift=    0.000
 RMSDP=1.54D-08 MaxDP=1.25D-07 DE=-1.19D-12 OVMax= 2.58D-07

 Cycle  22  Pass 1  IDiag  3:
 E= -3.66675194054727     Delta-E=       -0.000000000000 Rises=F Damp=F
 DIIS: error= 4.86D-09 at cycle  22 NSaved=  16.
 NSaved=16 IEnMin=16 EnMin= -3.66675194054727     IErMin=16 ErrMin= 4.86D-09
 ErrMax= 4.86D-09  0.00D+00 EMaxC= 1.00D-01 BMatC= 2.06D-15 BMatP= 1.12D-14
 IDIUse=1 WtCom= 1.00D+00 WtEn= 0.00D+00
 Large coefficients: NSaved= 16 BigCof=    0.00 CofMax=   10.00 Det=-7.12D-16
 Inversion failed.  Reducing to 15 matrices.
 Coeff-Com:  0.989D-06-0.604D-06-0.107D-04 0.350D-04-0.785D-04 0.167D-03
 Coeff-Com: -0.376D-03 0.975D-03-0.163D-02-0.102D-05 0.660D-02-0.473D-01
 Coeff-Com:  0.275D+00-0.102D+01 0.178D+01
 Coeff:      0.989D-06-0.604D-06-0.107D-04 0.350D-04-0.785D-04 0.167D-03
 Coeff:     -0.376D-03 0.975D-03-0.163D-02-0.102D-05 0.660D-02-0.473D-01
 Coeff:      0.275D+00-0.102D+01 0.178D+01
 Gap=     0.175 Goal=   None    Shift=    0.000
 RMSDP=8.24D-09 MaxDP=7.21D-08 DE=-2.84D-13 OVMax= 1.09D-07

 Cycle  23  Pass 2  IDiag  1:
 SCF Done:  E(RPM6) =  -3.66675194055     A.U. after   23 cycles
            NFock= 22  Conv=0.82D-08     -V/T= 0.9734
 KE=-1.377244998782D+02 PE=-5.950366732811D+02 EE= 3.392076354035D+02
 Leave Link  502 at Wed Jan  5 15:22:07 2022, MaxMem=   402653184 cpu:             160.8 elap:              29.2
 (Enter /work/01114/jfonner/frontera/gaussian/16rC.01/g16/l601.exe)
 Copying SCF densities to generalized density rwf, IOpCl= 0 IROHF=0.

 **********************************************************************

            Population analysis using the SCF Density.

 **********************************************************************

 Alpha  occ. eigenvalues --   -1.41720  -1.39285  -1.34633  -1.31579  -1.29019
 Alpha  occ. eigenvalues --   -1.23820  -1.16461  -1.10792  -1.02948  -0.95024
 Alpha  occ. eigenvalues --   -0.94745  -0.86177  -0.81702  -0.79585  -0.78517
 Alpha  occ. eigenvalues --   -0.76388  -0.75746  -0.74355  -0.72037  -0.69787
 Alpha  occ. eigenvalues --   -0.67430  -0.66107  -0.65091  -0.62333  -0.61269
 Alpha  occ. eigenvalues --   -0.60486  -0.58006  -0.57714  -0.52948  -0.52418
 Alpha  occ. eigenvalues --   -0.50320  -0.48852
 Alpha virt. eigenvalues --   -0.31469  -0.25219  -0.22240  -0.19850  -0.17778
 Alpha virt. eigenvalues --   -0.16936  -0.16218  -0.12689  -0.10891  -0.08237
 Alpha virt. eigenvalues --   -0.07477  -0.06617  -0.05209  -0.04236  -0.03705
 Alpha virt. eigenvalues --   -0.03454  -0.01909   0.00238   0.04169   0.05262
 Alpha virt. eigenvalues --    0.05987   0.06861   0.15588   0.26967
          Condensed to atoms (all electrons):
               1          2          3          4          5          6
     1  C    3.480254   0.000000   0.000000   0.000000   0.000000   0.000000
     2  O    0.000000   6.557336   0.000000   0.000000   0.000000   0.000000
     3  N    0.000000   0.000000   5.634455   0.000000   0.000000   0.000000
     4  C    0.000000   0.000000   0.000000   3.922017   0.000000   0.000000
     5  C    0.000000   0.000000   0.000000   0.000000   3.520601   0.000000
     6  O    0.000000   0.000000   0.000000   0.000000   0.000000   6.399370
     7  N    0.000000   0.000000   0.000000   0.000000   0.000000   0.000000
     8  C    0.000000   0.000000   0.000000   0.000000   0.000000   0.000000
     9  C    0.000000   0.000000   0.000000   0.000000   0.000000   0.000000
    10  C    0.000000   0.000000   0.000000   0.000000   0.000000   0.000000
    11  O    0.000000   0.000000   0.000000   0.000000   0.000000   0.000000
    12  N    0.000000   0.000000   0.000000   0.000000   0.000000   0.000000
    13  C    0.000000   0.000000   0.000000   0.000000   0.000000   0.000000
    14  H    0.000000   0.000000   0.000000   0.000000   0.000000   0.000000
    15  H    0.000000   0.000000   0.000000   0.000000   0.000000   0.000000
    16  H    0.000000   0.000000   0.000000   0.000000   0.000000   0.000000
    17  H    0.000000   0.000000   0.000000   0.000000   0.000000   0.000000
               7          8          9         10         11         12
     1  C    0.000000   0.000000   0.000000   0.000000   0.000000   0.000000
     2  O    0.000000   0.000000   0.000000   0.000000   0.000000   0.000000
     3  N    0.000000   0.000000   0.000000   0.000000   0.000000   0.000000
     4  C    0.000000   0.000000   0.000000   0.000000   0.000000   0.000000
     5  C    0.000000   0.000000   0.000000   0.000000   0.000000   0.000000
     6  O    0.000000   0.000000   0.000000   0.000000   0.000000   0.000000
     7  N    5.458740   0.000000   0.000000   0.000000   0.000000   0.000000
     8  C    0.000000   3.325621   0.000000   0.000000   0.000000   0.000000
     9  C    0.000000   0.000000   3.747301   0.000000   0.000000   0.000000
    10  C    0.000000   0.000000   0.000000   3.654612   0.000000   0.000000
    11  O    0.000000   0.000000   0.000000   0.000000   6.352837   0.000000
    12  N    0.000000   0.000000   0.000000   0.000000   0.000000   5.465451
    13  C    0.000000   0.000000   0.000000   0.000000   0.000000   0.000000
    14  H    0.000000   0.000000   0.000000   0.000000   0.000000   0.000000
    15  H    0.000000   0.000000   0.000000   0.000000   0.000000   0.000000
    16  H    0.000000   0.000000   0.000000   0.000000   0.000000   0.000000
    17  H    0.000000   0.000000   0.000000   0.000000   0.000000   0.000000
              13         14         15         16         17
     1  C    0.000000   0.000000   0.000000   0.000000   0.000000
     2  O    0.000000   0.000000   0.000000   0.000000   0.000000
     3  N    0.000000   0.000000   0.000000   0.000000   0.000000
     4  C    0.000000   0.000000   0.000000   0.000000   0.000000
     5  C    0.000000   0.000000   0.000000   0.000000   0.000000
     6  O    0.000000   0.000000   0.000000   0.000000   0.000000
     7  N    0.000000   0.000000   0.000000   0.000000   0.000000
     8  C    0.000000   0.000000   0.000000   0.000000   0.000000
     9  C    0.000000   0.000000   0.000000   0.000000   0.000000
    10  C    0.000000   0.000000   0.000000   0.000000   0.000000
    11  O    0.000000   0.000000   0.000000   0.000000   0.000000
    12  N    0.000000   0.000000   0.000000   0.000000   0.000000
    13  C    3.766801   0.000000   0.000000   0.000000   0.000000
    14  H    0.000000   0.959245   0.000000   0.000000   0.000000
    15  H    0.000000   0.000000   0.594657   0.000000   0.000000
    16  H    0.000000   0.000000   0.000000   0.871837   0.000000
    17  H    0.000000   0.000000   0.000000   0.000000   0.288865
 Mulliken charges:
               1
     1  C    0.519746
     2  O   -0.557336
     3  N   -0.634455
     4  C    0.077983
     5  C    0.479399
     6  O   -0.399370
     7  N   -0.458740
     8  C    0.674379
     9  C    0.252699
    10  C    0.345388
    11  O   -0.352837
    12  N   -0.465451
    13  C    0.233199
    14  H    0.040755
    15  H    0.405343
    16  H    0.128163
    17  H    0.711135
 Sum of Mulliken charges =   1.00000
 Mulliken charges with hydrogens summed into heavy atoms:
               1
     1  C    0.560501
     2  O   -0.557336
     3  N   -0.634455
     4  C    0.077983
     5  C    0.479399
     6  O   -0.399370
     7  N   -0.458740
     8  C    0.674379
     9  C    0.658042
    10  C    0.345388
    11  O   -0.352837
    12  N   -0.465451
    13  C    1.072497
 Charge=              1.0000 electrons
 Dipole moment (field-independent basis, Debye):
    X=             20.4448    Y=              0.4347    Z=             56.4312  Tot=             60.0221
 N-N= 3.898867858153D+02 E-N=-5.950366733467D+02  KE=-1.377244998782D+02
 Leave Link  601 at Wed Jan  5 15:22:07 2022, MaxMem=   402653184 cpu:               2.2 elap:               0.6
 (Enter /work/01114/jfonner/frontera/gaussian/16rC.01/g16/l9999.exe)

 Test job not archived.
 1\1\GINC-C208-022\SP\RPM6\ZDO\C7H4N3O3(1+)\SA748948\05-Jan-2022\0\\#p 
 int=acc2e=12 pm6 charge nosymm\\Atom number=17\\1,1\C,0,0.84,-0.854,6.
 792\O,0,1.027,-2.022,6.72\N,0,1.81,0.002,7.023\C,0,3.191,-0.429,7.101\
 C,0,3.911,0.258,8.229\O,0,4.064,1.478,8.228\N,0,4.364,-0.527,9.189\C,0
 ,5.067,0.02,10.326\C,0,3.871,-0.103,5.748\C,0,4.271,0.817,11.296\O,0,4
 .359,2.033,11.367\N,0,3.492,0.104,12.073\C,0,2.585,0.677,13.085\H,0,-0
 .1554133,-0.47120296,6.70528907\H,0,4.86074827,-0.49141865,5.62787794\
 H,0,2.88854701,0.22276101,14.00501421\H,0,1.55916343,0.43285371,12.903
 47336\\Version=ES64L-G16RevC.01\HF=-3.6667519\RMSD=8.245e-09\Dipole=1.
 9637056,-0.0634821,5.0818495\PG=C01 [X(C7H4N3O3)]\\@


 IT IS IMPOSSIBLE TO MEDITATE ON TIME AND THE MYSTERY 
 OF NATURE WITHOUT AN OVERWHELMING EMOTION AT THE
 LIMITATIONS OF HUMAN INTELLIGENCE.

                                         -- ALFRED NORTH WHITEHEAD
 Job cpu time:       0 days  0 hours  3 minutes 43.4 seconds.
 Elapsed time:       0 days  0 hours  0 minutes 41.1 seconds.
 File lengths (MBytes):  RWF=      6 Int=      0 D2E=      0 Chk=      2 Scr=      1
 Normal termination of Gaussian 16 at Wed Jan  5 15:22:08 2022.
