Atom number=26                                                          
SP        RPM6                                                        ZDO                 
Number of atoms                            I               26
Info1-9                                    I   N=           9
          82          81           0           0           0         111
           1           8        2302
Full Title                                 C   N=           2
Atom number=26          
Route                                      C   N=           3
#p int=acc2e=12 pm6 charge nosymm   
Charge                                     I                1
Multiplicity                               I                1
Number of electrons                        I              104
Number of alpha electrons                  I               52
Number of beta electrons                   I               52
Number of basis functions                  I               89
Number of independent functions            I               89
Number of point charges in /Mol/           I                0
Number of translation vectors              I                0
Atomic numbers                             I   N=          26
           6           8           7           6           6           8
           7           6           6           8           6           8
           7           6           6           8           7           6
           6           8           6           1           1           1
           1           1
Nuclear charges                            R   N=          26
  4.00000000E+00  6.00000000E+00  5.00000000E+00  4.00000000E+00  4.00000000E+00
  6.00000000E+00  5.00000000E+00  4.00000000E+00  4.00000000E+00  6.00000000E+00
  4.00000000E+00  6.00000000E+00  5.00000000E+00  4.00000000E+00  4.00000000E+00
  6.00000000E+00  5.00000000E+00  4.00000000E+00  4.00000000E+00  6.00000000E+00
  4.00000000E+00  1.00000000E+00  1.00000000E+00  1.00000000E+00  1.00000000E+00
  1.00000000E+00
Current cartesian coordinates              R   N=          78
  5.68051673E+00  8.88171279E-02  2.71383569E+01  5.58980988E+00 -2.20908984E+00
  2.74293747E+01  6.57813664E+00  1.67618707E+00  2.88410001E+01  7.86692986E+00
  7.40772641E-01  3.10708769E+01  6.47042225E+00  1.82358571E+00  3.33177613E+01
  5.92618113E+00  3.98732212E+00  3.32818565E+01  5.99610099E+00  2.43774670E-01
  3.52377230E+01  4.83580915E+00  9.75098680E-01  3.76112191E+01  1.07487622E+01
  1.41729459E+00  3.09707215E+01  1.18372444E+01  2.45664396E-01  2.87918672E+01
  6.33058252E+00 -2.30546587E-01  3.97107048E+01  6.36081814E+00 -2.53034328E+00
  3.99488103E+01  7.68551615E+00  1.30013157E+00  4.11355583E+01  9.23698130E+00
  3.87393856E-01  4.31821317E+01  8.22030864E+00  1.45319939E+00  4.56822393E+01
  7.86315040E+00  3.74354745E+00  4.58617633E+01  7.68173670E+00 -2.26767135E-01
  4.75285018E+01  7.02978118E+00  5.91484277E-01  5.01060882E+01  2.15050833E+00
 -3.96842486E-02  3.77623971E+01  7.42662367E-01  7.44552093E-01  3.55722046E+01
  9.18406897E-01  9.46752788E-01  3.99998329E+01  5.10689602E+00  9.47204414E-01
  2.53997820E+01  1.17421858E+01  6.84441152E-01  3.25721419E+01  1.11690919E+01
  9.23508666E-01  4.29212836E+01  8.64380301E+00  3.62798144E-01  5.13023943E+01
  5.41246579E+00 -3.82083952E-01  5.08306349E+01
Number of symbols in /Mol/                 I                0
Int Atom Types                             I   N=          26
           0           0           0           0           0           0
           0           0           0           0           0           0
           0           0           0           0           0           0
           0           0           0           0           0           0
           0           0
Force Field                                I                0
Atom Types                                 C   N=          26
                                                            
                                                            
                                                            
                                                            
                                                            
            
MM charges                                 R   N=          26
  0.00000000E+00  0.00000000E+00  0.00000000E+00  0.00000000E+00  0.00000000E+00
  0.00000000E+00  0.00000000E+00  0.00000000E+00  0.00000000E+00  0.00000000E+00
  0.00000000E+00  0.00000000E+00  0.00000000E+00  0.00000000E+00  0.00000000E+00
  0.00000000E+00  0.00000000E+00  0.00000000E+00  0.00000000E+00  0.00000000E+00
  0.00000000E+00  0.00000000E+00  0.00000000E+00  0.00000000E+00  0.00000000E+00
  0.00000000E+00
Integer atomic weights                     I   N=          26
          12          16          14          12          12          16
          14          12          12          16          12          16
          14          12          12          16          14          12
          12          16          12           1           1           1
           1           1
Real atomic weights                        R   N=          26
  1.20000000E+01  1.59949146E+01  1.40030740E+01  1.20000000E+01  1.20000000E+01
  1.59949146E+01  1.40030740E+01  1.20000000E+01  1.20000000E+01  1.59949146E+01
  1.20000000E+01  1.59949146E+01  1.40030740E+01  1.20000000E+01  1.20000000E+01
  1.59949146E+01  1.40030740E+01  1.20000000E+01  1.20000000E+01  1.59949146E+01
  1.20000000E+01  1.00782504E+00  1.00782504E+00  1.00782504E+00  1.00782504E+00
  1.00782504E+00
Atom fragment info                         I   N=          26
           0           0           0           0           0           0
           0           0           0           0           0           0
           0           0           0           0           0           0
           0           0           0           0           0           0
           0           0
Atom residue num                           I   N=          26
           0           0           0           0           0           0
           0           0           0           0           0           0
           0           0           0           0           0           0
           0           0           0           0           0           0
           0           0
Nuclear spins                              I   N=          26
           0           0           2           0           0           0
           2           0           0           0           0           0
           2           0           0           0           2           0
           0           0           0           1           1           1
           1           1
Nuclear ZEff                               R   N=          26
 -3.90000000E+00 -6.00000000E+00 -4.90000000E+00 -3.90000000E+00 -3.90000000E+00
 -6.00000000E+00 -4.90000000E+00 -3.90000000E+00 -3.90000000E+00 -6.00000000E+00
 -3.90000000E+00 -6.00000000E+00 -4.90000000E+00 -3.90000000E+00 -3.90000000E+00
 -6.00000000E+00 -4.90000000E+00 -3.90000000E+00 -3.90000000E+00 -6.00000000E+00
 -3.90000000E+00 -1.00000000E+00 -1.00000000E+00 -1.00000000E+00 -1.00000000E+00
 -1.00000000E+00
Nuclear ZNuc                               R   N=          26
  6.00000000E+00  8.00000000E+00  7.00000000E+00  6.00000000E+00  6.00000000E+00
  8.00000000E+00  7.00000000E+00  6.00000000E+00  6.00000000E+00  8.00000000E+00
  6.00000000E+00  8.00000000E+00  7.00000000E+00  6.00000000E+00  6.00000000E+00
  8.00000000E+00  7.00000000E+00  6.00000000E+00  6.00000000E+00  8.00000000E+00
  6.00000000E+00  1.00000000E+00  1.00000000E+00  1.00000000E+00  1.00000000E+00
  1.00000000E+00
Nuclear QMom                               R   N=          26
  0.00000000E+00  0.00000000E+00  2.04400000E+00  0.00000000E+00  0.00000000E+00
  0.00000000E+00  2.04400000E+00  0.00000000E+00  0.00000000E+00  0.00000000E+00
  0.00000000E+00  0.00000000E+00  2.04400000E+00  0.00000000E+00  0.00000000E+00
  0.00000000E+00  2.04400000E+00  0.00000000E+00  0.00000000E+00  0.00000000E+00
  0.00000000E+00  0.00000000E+00  0.00000000E+00  0.00000000E+00  0.00000000E+00
  0.00000000E+00
Nuclear GFac                               R   N=          26
  0.00000000E+00  0.00000000E+00  4.03761000E-01  0.00000000E+00  0.00000000E+00
  0.00000000E+00  4.03761000E-01  0.00000000E+00  0.00000000E+00  0.00000000E+00
  0.00000000E+00  0.00000000E+00  4.03761000E-01  0.00000000E+00  0.00000000E+00
  0.00000000E+00  4.03761000E-01  0.00000000E+00  0.00000000E+00  0.00000000E+00
  0.00000000E+00  2.79284600E+00  2.79284600E+00  2.79284600E+00  2.79284600E+00
  2.79284600E+00
MicOpt                                     I   N=          26
          -1          -1          -1          -1          -1          -1
          -1          -1          -1          -1          -1          -1
          -1          -1          -1          -1          -1          -1
          -1          -1          -1          -1          -1          -1
          -1          -1
Number of residues                         I                0
Number of secondary structures             I                0
Number of contracted shells                I               26
Number of primitive shells                 I              156
Pure/Cartesian d shells                    I                0
Pure/Cartesian f shells                    I                0
Highest angular momentum                   I                1
Largest degree of contraction              I                6
Shell types                                I   N=          26
          -1          -1          -1          -1          -1          -1
          -1          -1          -1          -1          -1          -1
          -1          -1          -1          -1          -1          -1
          -1          -1          -1           0           0           0
           0           0
Number of primitives per shell             I   N=          26
           6           6           6           6           6           6
           6           6           6           6           6           6
           6           6           6           6           6           6
           6           6           6           6           6           6
           6           6
Shell to atom map                          I   N=          26
           1           2           3           4           5           6
           7           8           9          10          11          12
          13          14          15          16          17          18
          19          20          21          22          23          24
          25          26
Primitive exponents                        R   N=         156
  1.14476344E+01  3.29633588E+00  1.29653143E+00  5.92558930E-01  2.94896438E-01
  1.51447622E-01  8.02643074E+01  2.31120341E+01  9.09054165E+00  4.15468650E+00
  2.06764625E+00  1.06186467E+00  1.54719623E+01  4.45513742E+00  1.75231709E+00
  8.00868468E-01  3.98565014E-01  2.04687870E-01  1.14476344E+01  3.29633588E+00
  1.29653143E+00  5.92558930E-01  2.94896438E-01  1.51447622E-01  1.14476344E+01
  3.29633588E+00  1.29653143E+00  5.92558930E-01  2.94896438E-01  1.51447622E-01
  8.02643074E+01  2.31120341E+01  9.09054165E+00  4.15468650E+00  2.06764625E+00
  1.06186467E+00  1.54719623E+01  4.45513742E+00  1.75231709E+00  8.00868468E-01
  3.98565014E-01  2.04687870E-01  1.14476344E+01  3.29633588E+00  1.29653143E+00
  5.92558930E-01  2.94896438E-01  1.51447622E-01  1.14476344E+01  3.29633588E+00
  1.29653143E+00  5.92558930E-01  2.94896438E-01  1.51447622E-01  8.02643074E+01
  2.31120341E+01  9.09054165E+00  4.15468650E+00  2.06764625E+00  1.06186467E+00
  1.14476344E+01  3.29633588E+00  1.29653143E+00  5.92558930E-01  2.94896438E-01
  1.51447622E-01  8.02643074E+01  2.31120341E+01  9.09054165E+00  4.15468650E+00
  2.06764625E+00  1.06186467E+00  1.54719623E+01  4.45513742E+00  1.75231709E+00
  8.00868468E-01  3.98565014E-01  2.04687870E-01  1.14476344E+01  3.29633588E+00
  1.29653143E+00  5.92558930E-01  2.94896438E-01  1.51447622E-01  1.14476344E+01
  3.29633588E+00  1.29653143E+00  5.92558930E-01  2.94896438E-01  1.51447622E-01
  8.02643074E+01  2.31120341E+01  9.09054165E+00  4.15468650E+00  2.06764625E+00
  1.06186467E+00  1.54719623E+01  4.45513742E+00  1.75231709E+00  8.00868468E-01
  3.98565014E-01  2.04687870E-01  1.14476344E+01  3.29633588E+00  1.29653143E+00
  5.92558930E-01  2.94896438E-01  1.51447622E-01  1.14476344E+01  3.29633588E+00
  1.29653143E+00  5.92558930E-01  2.94896438E-01  1.51447622E-01  8.02643074E+01
  2.31120341E+01  9.09054165E+00  4.15468650E+00  2.06764625E+00  1.06186467E+00
  1.14476344E+01  3.29633588E+00  1.29653143E+00  5.92558930E-01  2.94896438E-01
  1.51447622E-01  4.39461478E+00  1.26542531E+00  4.97723458E-01  2.27476537E-01
  1.13207340E-01  5.81389949E-02  4.39461478E+00  1.26542531E+00  4.97723458E-01
  2.27476537E-01  1.13207340E-01  5.81389949E-02  4.39461478E+00  1.26542531E+00
  4.97723458E-01  2.27476537E-01  1.13207340E-01  5.81389949E-02  4.39461478E+00
  1.26542531E+00  4.97723458E-01  2.27476537E-01  1.13207340E-01  5.81389949E-02
  4.39461478E+00  1.26542531E+00  4.97723458E-01  2.27476537E-01  1.13207340E-01
  5.81389949E-02
Contraction coefficients                   R   N=         156
 -9.73739553E-03 -7.26587678E-02 -1.71615520E-01  1.28977624E-01  7.28861451E-01
  3.01331742E-01 -9.73739553E-03 -7.26587678E-02 -1.71615520E-01  1.28977624E-01
  7.28861451E-01  3.01331742E-01 -9.73739553E-03 -7.26587678E-02 -1.71615520E-01
  1.28977624E-01  7.28861451E-01  3.01331742E-01 -9.73739553E-03 -7.26587678E-02
 -1.71615520E-01  1.28977624E-01  7.28861451E-01  3.01331742E-01 -9.73739553E-03
 -7.26587678E-02 -1.71615520E-01  1.28977624E-01  7.28861451E-01  3.01331742E-01
 -9.73739553E-03 -7.26587678E-02 -1.71615520E-01  1.28977624E-01  7.28861451E-01
  3.01331742E-01 -9.73739553E-03 -7.26587678E-02 -1.71615520E-01  1.28977624E-01
  7.28861451E-01  3.01331742E-01 -9.73739553E-03 -7.26587678E-02 -1.71615520E-01
  1.28977624E-01  7.28861451E-01  3.01331742E-01 -9.73739553E-03 -7.26587678E-02
 -1.71615520E-01  1.28977624E-01  7.28861451E-01  3.01331742E-01 -9.73739553E-03
 -7.26587678E-02 -1.71615520E-01  1.28977624E-01  7.28861451E-01  3.01331742E-01
 -9.73739553E-03 -7.26587678E-02 -1.71615520E-01  1.28977624E-01  7.28861451E-01
  3.01331742E-01 -9.73739553E-03 -7.26587678E-02 -1.71615520E-01  1.28977624E-01
  7.28861451E-01  3.01331742E-01 -9.73739553E-03 -7.26587678E-02 -1.71615520E-01
  1.28977624E-01  7.28861451E-01  3.01331742E-01 -9.73739553E-03 -7.26587678E-02
 -1.71615520E-01  1.28977624E-01  7.28861451E-01  3.01331742E-01 -9.73739553E-03
 -7.26587678E-02 -1.71615520E-01  1.28977624E-01  7.28861451E-01  3.01331742E-01
 -9.73739553E-03 -7.26587678E-02 -1.71615520E-01  1.28977624E-01  7.28861451E-01
  3.01331742E-01 -9.73739553E-03 -7.26587678E-02 -1.71615520E-01  1.28977624E-01
  7.28861451E-01  3.01331742E-01 -9.73739553E-03 -7.26587678E-02 -1.71615520E-01
  1.28977624E-01  7.28861451E-01  3.01331742E-01 -9.73739553E-03 -7.26587678E-02
 -1.71615520E-01  1.28977624E-01  7.28861451E-01  3.01331742E-01 -9.73739553E-03
 -7.26587678E-02 -1.71615520E-01  1.28977624E-01  7.28861451E-01  3.01331742E-01
 -9.73739553E-03 -7.26587678E-02 -1.71615520E-01  1.28977624E-01  7.28861451E-01
  3.01331742E-01 -9.73739553E-03 -7.26587678E-02 -1.71615520E-01  1.28977624E-01
  7.28861451E-01  3.01331742E-01 -9.73739553E-03 -7.26587678E-02 -1.71615520E-01
  1.28977624E-01  7.28861451E-01  3.01331742E-01 -9.73739553E-03 -7.26587678E-02
 -1.71615520E-01  1.28977624E-01  7.28861451E-01  3.01331742E-01 -9.73739553E-03
 -7.26587678E-02 -1.71615520E-01  1.28977624E-01  7.28861451E-01  3.01331742E-01
 -9.73739553E-03 -7.26587678E-02 -1.71615520E-01  1.28977624E-01  7.28861451E-01
  3.01331742E-01
P(S=P) Contraction coefficients            R   N=         156
 -8.10494336E-03 -1.71547892E-02  7.36978576E-02  3.96514999E-01  4.97808488E-01
  1.17482582E-01 -8.10494336E-03 -1.71547892E-02  7.36978576E-02  3.96514999E-01
  4.97808488E-01  1.17482582E-01 -8.10494336E-03 -1.71547892E-02  7.36978576E-02
  3.96514999E-01  4.97808488E-01  1.17482582E-01 -8.10494336E-03 -1.71547892E-02
  7.36978576E-02  3.96514999E-01  4.97808488E-01  1.17482582E-01 -8.10494336E-03
 -1.71547892E-02  7.36978576E-02  3.96514999E-01  4.97808488E-01  1.17482582E-01
 -8.10494336E-03 -1.71547892E-02  7.36978576E-02  3.96514999E-01  4.97808488E-01
  1.17482582E-01 -8.10494336E-03 -1.71547892E-02  7.36978576E-02  3.96514999E-01
  4.97808488E-01  1.17482582E-01 -8.10494336E-03 -1.71547892E-02  7.36978576E-02
  3.96514999E-01  4.97808488E-01  1.17482582E-01 -8.10494336E-03 -1.71547892E-02
  7.36978576E-02  3.96514999E-01  4.97808488E-01  1.17482582E-01 -8.10494336E-03
 -1.71547892E-02  7.36978576E-02  3.96514999E-01  4.97808488E-01  1.17482582E-01
 -8.10494336E-03 -1.71547892E-02  7.36978576E-02  3.96514999E-01  4.97808488E-01
  1.17482582E-01 -8.10494336E-03 -1.71547892E-02  7.36978576E-02  3.96514999E-01
  4.97808488E-01  1.17482582E-01 -8.10494336E-03 -1.71547892E-02  7.36978576E-02
  3.96514999E-01  4.97808488E-01  1.17482582E-01 -8.10494336E-03 -1.71547892E-02
  7.36978576E-02  3.96514999E-01  4.97808488E-01  1.17482582E-01 -8.10494336E-03
 -1.71547892E-02  7.36978576E-02  3.96514999E-01  4.97808488E-01  1.17482582E-01
 -8.10494336E-03 -1.71547892E-02  7.36978576E-02  3.96514999E-01  4.97808488E-01
  1.17482582E-01 -8.10494336E-03 -1.71547892E-02  7.36978576E-02  3.96514999E-01
  4.97808488E-01  1.17482582E-01 -8.10494336E-03 -1.71547892E-02  7.36978576E-02
  3.96514999E-01  4.97808488E-01  1.17482582E-01 -8.10494336E-03 -1.71547892E-02
  7.36978576E-02  3.96514999E-01  4.97808488E-01  1.17482582E-01 -8.10494336E-03
 -1.71547892E-02  7.36978576E-02  3.96514999E-01  4.97808488E-01  1.17482582E-01
 -8.10494336E-03 -1.71547892E-02  7.36978576E-02  3.96514999E-01  4.97808488E-01
  1.17482582E-01  0.00000000E+00  0.00000000E+00  0.00000000E+00  0.00000000E+00
  0.00000000E+00  0.00000000E+00  0.00000000E+00  0.00000000E+00  0.00000000E+00
  0.00000000E+00  0.00000000E+00  0.00000000E+00  0.00000000E+00  0.00000000E+00
  0.00000000E+00  0.00000000E+00  0.00000000E+00  0.00000000E+00  0.00000000E+00
  0.00000000E+00  0.00000000E+00  0.00000000E+00  0.00000000E+00  0.00000000E+00
  0.00000000E+00  0.00000000E+00  0.00000000E+00  0.00000000E+00  0.00000000E+00
  0.00000000E+00
Coordinates of each shell                  R   N=          78
  5.68051673E+00  8.88171279E-02  2.71383569E+01  5.58980988E+00 -2.20908984E+00
  2.74293747E+01  6.57813664E+00  1.67618707E+00  2.88410001E+01  7.86692986E+00
  7.40772641E-01  3.10708769E+01  6.47042225E+00  1.82358571E+00  3.33177613E+01
  5.92618113E+00  3.98732212E+00  3.32818565E+01  5.99610099E+00  2.43774670E-01
  3.52377230E+01  4.83580915E+00  9.75098680E-01  3.76112191E+01  1.07487622E+01
  1.41729459E+00  3.09707215E+01  1.18372444E+01  2.45664396E-01  2.87918672E+01
  6.33058252E+00 -2.30546587E-01  3.97107048E+01  6.36081814E+00 -2.53034328E+00
  3.99488103E+01  7.68551615E+00  1.30013157E+00  4.11355583E+01  9.23698130E+00
  3.87393856E-01  4.31821317E+01  8.22030864E+00  1.45319939E+00  4.56822393E+01
  7.86315040E+00  3.74354745E+00  4.58617633E+01  7.68173670E+00 -2.26767135E-01
  4.75285018E+01  7.02978118E+00  5.91484277E-01  5.01060882E+01  2.15050833E+00
 -3.96842486E-02  3.77623971E+01  7.42662367E-01  7.44552093E-01  3.55722046E+01
  9.18406897E-01  9.46752788E-01  3.99998329E+01  5.10689602E+00  9.47204414E-01
  2.53997820E+01  1.17421858E+01  6.84441152E-01  3.25721419E+01  1.11690919E+01
  9.23508666E-01  4.29212836E+01  8.64380301E+00  3.62798144E-01  5.13023943E+01
  5.41246579E+00 -3.82083952E-01  5.08306349E+01
Num ILSW                                   I              100
ILSW                                       I   N=         100
           0           0           0           0           2           0
           0           0           0           0           0          -1
           5           0           0           0           0           0
           0           0           0           0           0           0
           1           1           0           0           0           0
           0           0      100000           0          -1           0
           0           0           0           0           0           0
           0           0           0          40           0           0
           0 -2000000000           1           0           0           0
           0           0           4          52           0           0
           0           1           0           0           0           0
           0           0           0          26           0           1
           0           0           0           0           0           0
           0           0           0           0           0           0
           0           0           0           0           0           0
           0           0           0           0           0           0
           0           0           0           0
Num RLSW                                   I               52
RLSW                                       R   N=          52
  1.00000000E+00  1.00000000E+00  1.00000000E+00  1.00000000E+00  1.00000000E+00
  0.00000000E+00  0.00000000E+00  1.00000000E+00  0.00000000E+00  0.00000000E+00
  0.00000000E+00  0.00000000E+00  1.00000000E+00  0.00000000E+00  0.00000000E+00
  0.00000000E+00  0.00000000E+00  1.00000000E+00  0.00000000E+00  0.00000000E+00
  0.00000000E+00  0.00000000E+00  1.00000000E+00  0.00000000E+00  0.00000000E+00
  0.00000000E+00  0.00000000E+00  1.00000000E+00  0.00000000E+00  0.00000000E+00
  0.00000000E+00  0.00000000E+00  1.00000000E+00  0.00000000E+00  0.00000000E+00
  0.00000000E+00  0.00000000E+00  0.00000000E+00  1.00000000E+00  1.00000000E+00
  0.00000000E+00  1.00000000E+00  0.00000000E+00  0.00000000E+00  0.00000000E+00
  0.00000000E+00  0.00000000E+00  0.00000000E+00  0.00000000E+00  0.00000000E+00
  0.00000000E+00  0.00000000E+00
MxBond                                     I                3
NBond                                      I   N=          26
           3           1           2           3           3           1
           2           3           3           1           3           1
           2           3           3           1           2           3
           3           1           1           1           1           1
           1           1
IBond                                      I   N=          78
           2           3          22           1           0           0
           1           4           0           3           5           9
           4           6           7           5           0           0
           5           8           0           7          11          19
           4          10          23           9           0           0
           8          12          13          11           0           0
          11          14           0          13          15          24
          14          16          17          15           0           0
          15          18           0          17          25          26
           8          20          21          19           0           0
          19           0           0           1           0           0
           9           0           0          14           0           0
          18           0           0          18           0           0
RBond                                      R   N=          78
  2.00000000E+00  1.50000000E+00  1.00000000E+00  2.00000000E+00  0.00000000E+00
  0.00000000E+00  1.50000000E+00  1.00000000E+00  0.00000000E+00  1.00000000E+00
  1.00000000E+00  1.00000000E+00  1.00000000E+00  2.00000000E+00  1.50000000E+00
  2.00000000E+00  0.00000000E+00  0.00000000E+00  1.50000000E+00  1.00000000E+00
  0.00000000E+00  1.00000000E+00  1.00000000E+00  1.00000000E+00  1.00000000E+00
  1.00000000E+00  1.00000000E+00  1.00000000E+00  0.00000000E+00  0.00000000E+00
  1.00000000E+00  2.00000000E+00  1.50000000E+00  2.00000000E+00  0.00000000E+00
  0.00000000E+00  1.50000000E+00  1.00000000E+00  0.00000000E+00  1.00000000E+00
  1.00000000E+00  1.00000000E+00  1.00000000E+00  2.00000000E+00  1.50000000E+00
  2.00000000E+00  0.00000000E+00  0.00000000E+00  1.50000000E+00  1.00000000E+00
  0.00000000E+00  1.00000000E+00  1.00000000E+00  1.00000000E+00  1.00000000E+00
  1.00000000E+00  1.00000000E+00  1.00000000E+00  0.00000000E+00  0.00000000E+00
  1.00000000E+00  0.00000000E+00  0.00000000E+00  1.00000000E+00  0.00000000E+00
  0.00000000E+00  1.00000000E+00  0.00000000E+00  0.00000000E+00  1.00000000E+00
  0.00000000E+00  0.00000000E+00  1.00000000E+00  0.00000000E+00  0.00000000E+00
  1.00000000E+00  0.00000000E+00  0.00000000E+00
Virial Ratio                               R      9.949803219686043E-01
SCF Energy                                 R     -1.140717529614790E+00
Total Energy                               R     -1.140717529614790E+00
RMS Density                                R      6.843577091099172E-09
Job Status                                 I                1
Nuclear derivative order                   I                0
External E-field                           R   N=          35
  0.00000000E+00  0.00000000E+00  0.00000000E+00  0.00000000E+00  0.00000000E+00
  0.00000000E+00  0.00000000E+00  0.00000000E+00  0.00000000E+00  0.00000000E+00
  0.00000000E+00  0.00000000E+00  0.00000000E+00  0.00000000E+00  0.00000000E+00
  0.00000000E+00  0.00000000E+00  0.00000000E+00  0.00000000E+00  0.00000000E+00
  0.00000000E+00  0.00000000E+00  0.00000000E+00  0.00000000E+00  0.00000000E+00
  0.00000000E+00  0.00000000E+00  0.00000000E+00  0.00000000E+00  0.00000000E+00
  0.00000000E+00  0.00000000E+00  0.00000000E+00  0.00000000E+00  0.00000000E+00
IOpCl                                      I                0
IROHF                                      I                0
Alpha Orbital Energies                     R   N=          89
 -1.72941579E+00 -1.68950954E+00 -1.68387347E+00 -1.67047605E+00 -1.60861524E+00
 -1.60191308E+00 -1.58128643E+00 -1.56947891E+00 -1.56780341E+00 -1.55771850E+00
 -1.50764441E+00 -1.49416049E+00 -1.43957034E+00 -1.42685819E+00 -1.38824025E+00
 -1.34162381E+00 -1.30381870E+00 -1.24550086E+00 -1.21385065E+00 -1.19374642E+00
 -1.15465401E+00 -1.13299526E+00 -1.13025700E+00 -1.11132865E+00 -1.08901279E+00
 -1.08379383E+00 -1.07190935E+00 -1.06391305E+00 -1.03850383E+00 -1.03112580E+00
 -1.02092005E+00 -1.01497871E+00 -1.00830433E+00 -9.97211081E-01 -9.88702110E-01
 -9.79850745E-01 -9.75838691E-01 -9.41373715E-01 -9.36413991E-01 -9.26876141E-01
 -9.13996105E-01 -9.08340861E-01 -8.99297787E-01 -8.74932090E-01 -8.73441684E-01
 -8.63558283E-01 -8.52776201E-01 -8.35490396E-01 -8.32630990E-01 -8.29991280E-01
 -7.84063196E-01 -7.63575549E-01 -6.42706781E-01 -6.14934465E-01 -6.03523770E-01
 -5.68512858E-01 -5.64121833E-01 -5.49065233E-01 -5.32499219E-01 -5.14345921E-01
 -4.96070326E-01 -4.90034146E-01 -4.84259138E-01 -4.56464003E-01 -4.53555529E-01
 -4.30839915E-01 -4.20509448E-01 -4.16661413E-01 -4.15159581E-01 -4.08550892E-01
 -3.98480459E-01 -3.91816673E-01 -3.86719255E-01 -3.82833128E-01 -3.65418760E-01
 -3.62023015E-01 -3.52327665E-01 -3.49305739E-01 -3.39024431E-01 -3.30259383E-01
 -3.23305734E-01 -3.16534410E-01 -3.02971985E-01 -2.85489974E-01 -2.77684770E-01
 -2.47530739E-01 -2.10175998E-01 -1.94117400E-01 -3.85571161E-02
Alpha MO coefficients                      R   N=        7921
 -1.45640492E-05 -3.99011597E-06 -4.00896514E-06 -2.16935427E-05 -3.87344838E-06
 -1.01265149E-06 -5.78267542E-06 -4.07352951E-06 -1.00163006E-04 -6.38603511E-06
  1.00821615E-05 -7.99004219E-05 -2.78780086E-04  1.22790860E-04 -1.08926518E-04
 -1.78167241E-04 -1.29934994E-03  2.37199771E-04 -2.26691350E-04 -3.30281415E-04
 -1.03144069E-03 -1.20852633E-04  6.69585657E-04 -1.07875697E-04 -1.46888236E-03
  2.35808504E-04 -5.02332103E-04  1.84794087E-04  4.65541866E-04  9.16212261E-04
 -4.46015664E-04  2.22255491E-03 -6.31840536E-05  5.36259707E-05 -2.73935043E-07
 -3.53594567E-05  1.33191810E-05  1.72839069E-06  6.20751045E-07 -2.39231177E-06
  1.46565035E-02  5.35496951E-03  1.05704122E-03  1.00635258E-02  7.08154716E-03
  9.56986038E-04  6.41852590E-03  1.56789050E-03  4.31799387E-02  3.58784438E-03
 -7.99222286E-03  2.21028122E-02  8.71692376E-02 -3.13057950E-02  3.20474165E-02
  5.74275905E-02  4.32743838E-01 -5.72451776E-02  7.69240218E-02  1.36856778E-01
  3.72023893E-01  2.42944424E-02 -2.23155352E-01  1.45942576E-02  5.39706916E-01
 -3.09014910E-03  1.81399194E-01  3.98863024E-02  3.73323290E-01  1.35318755E-02
 -5.43481229E-02 -1.13482247E-01 -2.45946802E-04  2.30664390E-04 -1.13322434E-04
  5.27190669E-04 -5.76822013E-04 -2.02026304E-04  6.36688319E-05 -2.09549780E-04
  1.13382199E-04  2.02158691E-04 -3.59925121E-05  9.91379146E-05 -3.72787002E-07
 -5.70510277E-05  2.13796547E-02  1.43356142E-01  2.78989617E-01  1.80726952E-02
  4.45267341E-03  2.80706597E-03  1.50861002E-02  7.30033585E-03  1.35542943E-03
  7.41668221E-03  2.57021486E-03  6.95895526E-02  5.67064154E-03 -9.25742097E-03
  3.92046351E-02  1.29197744E-01 -4.82526573E-02  5.75095981E-02  5.72117342E-02
  4.86249384E-01 -7.20233856E-02  1.94940462E-01  5.90143871E-02  5.35382424E-01
  6.78784081E-02 -2.89650771E-01  2.04722527E-02  3.40705125E-01 -1.36612238E-02
  1.38901758E-01 -3.71521978E-02  1.82711566E-01  4.37413114E-02 -2.66218903E-02
 -5.11340302E-02  3.78634674E-02 -2.63814598E-02 -3.88862798E-04  1.38355058E-02
 -1.79096155E-03 -3.00020788E-03  1.11584895E-03  3.63393384E-03  2.11393585E-01
  1.48040955E-02 -2.72682205E-02  6.62584798E-03  1.48197916E-01  1.46338772E-03
  1.03243857E-01 -9.78657112E-03  1.67955024E-01 -2.34034140E-02 -6.39459466E-02
 -2.17031582E-02  5.66679149E-02 -2.75114370E-02  6.35959341E-03 -2.96303724E-02
  2.16702850E-02  3.66270802E-05  1.20735298E-02 -1.85877246E-02  2.80458610E-02