Atom number=18                                                          
SP        RPM6                                                        ZDO                 
Number of atoms                            I               18
Info1-9                                    I   N=           9
          80          79           0           0           0         111
           1           8        2302
Full Title                                 C   N=           2
Atom number=18          
Route                                      C   N=           3
#p int=acc2e=12 pm6 charge nosymm   
Charge                                     I                4
Multiplicity                               I                1
Number of electrons                        I               68
Number of alpha electrons                  I               34
Number of beta electrons                   I               34
Number of basis functions                  I               63
Number of independent functions            I               63
Number of point charges in /Mol/           I                0
Number of translation vectors              I                0
Atomic numbers                             I   N=          18
           6           8           7           6           6           8
           7           6           6           8           7           6
           6           6           6           1           1           1
Nuclear charges                            R   N=          18
  4.00000000E+00  6.00000000E+00  5.00000000E+00  4.00000000E+00  4.00000000E+00
  6.00000000E+00  5.00000000E+00  4.00000000E+00  4.00000000E+00  6.00000000E+00
  5.00000000E+00  4.00000000E+00  4.00000000E+00  4.00000000E+00  4.00000000E+00
  1.00000000E+00  1.00000000E+00  1.00000000E+00
Current cartesian coordinates              R   N=          54
  7.39071887E+00  4.87549340E-01  1.55505563E+01  7.67984697E+00  2.79301521E+00
  1.55486666E+01  8.24676481E+00 -9.95885668E-01  1.73646934E+01  9.57524227E+00
  3.77945225E-02  1.95133120E+01  8.07102028E+00  1.54390624E+00  2.13463463E+01
  8.23731618E+00  3.84181321E+00  2.14805169E+01  6.59892363E+00  1.96531517E-01
  2.28146635E+01  4.88494203E+00  1.27934459E+00  2.47270663E+01  5.68051673E+00
  8.88171279E-02  2.71383569E+01  5.58980988E+00 -2.20908984E+00  2.74293747E+01
  6.57813664E+00  1.67618707E+00  2.88410001E+01  7.86692986E+00  7.40772641E-01
  3.10708769E+01  2.12972134E+00  6.23609621E-01  2.42395170E+01  4.68652079E-01
  1.27556513E+00  2.65279753E+01  1.27367541E+00  1.97854325E+00  2.19132641E+01
  6.42289447E+00 -4.35916448E-01  1.40342981E+01  6.87909841E+00  1.50670961E+00
  3.26602295E+01  9.83429712E+00  1.20262017E+00  3.10025029E+01
Number of symbols in /Mol/                 I                0
Int Atom Types                             I   N=          18
           0           0           0           0           0           0
           0           0           0           0           0           0
           0           0           0           0           0           0
Force Field                                I                0
Atom Types                                 C   N=          18
                                                            
                                                            
                                                            
                                    
MM charges                                 R   N=          18
  0.00000000E+00  0.00000000E+00  0.00000000E+00  0.00000000E+00  0.00000000E+00
  0.00000000E+00  0.00000000E+00  0.00000000E+00  0.00000000E+00  0.00000000E+00
  0.00000000E+00  0.00000000E+00  0.00000000E+00  0.00000000E+00  0.00000000E+00
  0.00000000E+00  0.00000000E+00  0.00000000E+00
Integer atomic weights                     I   N=          18
          12          16          14          12          12          16
          14          12          12          16          14          12
          12          12          12           1           1           1
Real atomic weights                        R   N=          18
  1.20000000E+01  1.59949146E+01  1.40030740E+01  1.20000000E+01  1.20000000E+01
  1.59949146E+01  1.40030740E+01  1.20000000E+01  1.20000000E+01  1.59949146E+01
  1.40030740E+01  1.20000000E+01  1.20000000E+01  1.20000000E+01  1.20000000E+01
  1.00782504E+00  1.00782504E+00  1.00782504E+00
Atom fragment info                         I   N=          18
           0           0           0           0           0           0
           0           0           0           0           0           0
           0           0           0           0           0           0
Atom residue num                           I   N=          18
           0           0           0           0           0           0
           0           0           0           0           0           0
           0           0           0           0           0           0
Nuclear spins                              I   N=          18
           0           0           2           0           0           0
           2           0           0           0           2           0
           0           0           0           1           1           1
Nuclear ZEff                               R   N=          18
 -3.90000000E+00 -6.00000000E+00 -4.90000000E+00 -3.90000000E+00 -3.90000000E+00
 -6.00000000E+00 -4.90000000E+00 -3.90000000E+00 -3.90000000E+00 -6.00000000E+00
 -4.90000000E+00 -3.90000000E+00 -3.90000000E+00 -3.90000000E+00 -3.90000000E+00
 -1.00000000E+00 -1.00000000E+00 -1.00000000E+00
Nuclear ZNuc                               R   N=          18
  6.00000000E+00  8.00000000E+00  7.00000000E+00  6.00000000E+00  6.00000000E+00
  8.00000000E+00  7.00000000E+00  6.00000000E+00  6.00000000E+00  8.00000000E+00
  7.00000000E+00  6.00000000E+00  6.00000000E+00  6.00000000E+00  6.00000000E+00
  1.00000000E+00  1.00000000E+00  1.00000000E+00
Nuclear QMom                               R   N=          18
  0.00000000E+00  0.00000000E+00  2.04400000E+00  0.00000000E+00  0.00000000E+00
  0.00000000E+00  2.04400000E+00  0.00000000E+00  0.00000000E+00  0.00000000E+00
  2.04400000E+00  0.00000000E+00  0.00000000E+00  0.00000000E+00  0.00000000E+00
  0.00000000E+00  0.00000000E+00  0.00000000E+00
Nuclear GFac                               R   N=          18
  0.00000000E+00  0.00000000E+00  4.03761000E-01  0.00000000E+00  0.00000000E+00
  0.00000000E+00  4.03761000E-01  0.00000000E+00  0.00000000E+00  0.00000000E+00
  4.03761000E-01  0.00000000E+00  0.00000000E+00  0.00000000E+00  0.00000000E+00
  2.79284600E+00  2.79284600E+00  2.79284600E+00
MicOpt                                     I   N=          18
          -1          -1          -1          -1          -1          -1
          -1          -1          -1          -1          -1          -1
          -1          -1          -1          -1          -1          -1
Number of residues                         I                0
Number of secondary structures             I                0
Number of contracted shells                I               18
Number of primitive shells                 I              108
Pure/Cartesian d shells                    I                0
Pure/Cartesian f shells                    I                0
Highest angular momentum                   I                1
Largest degree of contraction              I                6
Shell types                                I   N=          18
          -1          -1          -1          -1          -1          -1
          -1          -1          -1          -1          -1          -1
          -1          -1          -1           0           0           0
Number of primitives per shell             I   N=          18
           6           6           6           6           6           6
           6           6           6           6           6           6
           6           6           6           6           6           6
Shell to atom map                          I   N=          18
           1           2           3           4           5           6
           7           8           9          10          11          12
          13          14          15          16          17          18
Primitive exponents                        R   N=         108
  1.14476344E+01  3.29633588E+00  1.29653143E+00  5.92558930E-01  2.94896438E-01
  1.51447622E-01  8.02643074E+01  2.31120341E+01  9.09054165E+00  4.15468650E+00
  2.06764625E+00  1.06186467E+00  1.54719623E+01  4.45513742E+00  1.75231709E+00
  8.00868468E-01  3.98565014E-01  2.04687870E-01  1.14476344E+01  3.29633588E+00
  1.29653143E+00  5.92558930E-01  2.94896438E-01  1.51447622E-01  1.14476344E+01
  3.29633588E+00  1.29653143E+00  5.92558930E-01  2.94896438E-01  1.51447622E-01
  8.02643074E+01  2.31120341E+01  9.09054165E+00  4.15468650E+00  2.06764625E+00
  1.06186467E+00  1.54719623E+01  4.45513742E+00  1.75231709E+00  8.00868468E-01
  3.98565014E-01  2.04687870E-01  1.14476344E+01  3.29633588E+00  1.29653143E+00
  5.92558930E-01  2.94896438E-01  1.51447622E-01  1.14476344E+01  3.29633588E+00
  1.29653143E+00  5.92558930E-01  2.94896438E-01  1.51447622E-01  8.02643074E+01
  2.31120341E+01  9.09054165E+00  4.15468650E+00  2.06764625E+00  1.06186467E+00
  1.54719623E+01  4.45513742E+00  1.75231709E+00  8.00868468E-01  3.98565014E-01
  2.04687870E-01  1.14476344E+01  3.29633588E+00  1.29653143E+00  5.92558930E-01
  2.94896438E-01  1.51447622E-01  1.14476344E+01  3.29633588E+00  1.29653143E+00
  5.92558930E-01  2.94896438E-01  1.51447622E-01  1.14476344E+01  3.29633588E+00
  1.29653143E+00  5.92558930E-01  2.94896438E-01  1.51447622E-01  1.14476344E+01
  3.29633588E+00  1.29653143E+00  5.92558930E-01  2.94896438E-01  1.51447622E-01
  4.39461478E+00  1.26542531E+00  4.97723458E-01  2.27476537E-01  1.13207340E-01
  5.81389949E-02  4.39461478E+00  1.26542531E+00  4.97723458E-01  2.27476537E-01
  1.13207340E-01  5.81389949E-02  4.39461478E+00  1.26542531E+00  4.97723458E-01
  2.27476537E-01  1.13207340E-01  5.81389949E-02
Contraction coefficients                   R   N=         108
 -9.73739553E-03 -7.26587678E-02 -1.71615520E-01  1.28977624E-01  7.28861451E-01
  3.01331742E-01 -9.73739553E-03 -7.26587678E-02 -1.71615520E-01  1.28977624E-01
  7.28861451E-01  3.01331742E-01 -9.73739553E-03 -7.26587678E-02 -1.71615520E-01
  1.28977624E-01  7.28861451E-01  3.01331742E-01 -9.73739553E-03 -7.26587678E-02
 -1.71615520E-01  1.28977624E-01  7.28861451E-01  3.01331742E-01 -9.73739553E-03
 -7.26587678E-02 -1.71615520E-01  1.28977624E-01  7.28861451E-01  3.01331742E-01
 -9.73739553E-03 -7.26587678E-02 -1.71615520E-01  1.28977624E-01  7.28861451E-01
  3.01331742E-01 -9.73739553E-03 -7.26587678E-02 -1.71615520E-01  1.28977624E-01
  7.28861451E-01  3.01331742E-01 -9.73739553E-03 -7.26587678E-02 -1.71615520E-01
  1.28977624E-01  7.28861451E-01  3.01331742E-01 -9.73739553E-03 -7.26587678E-02
 -1.71615520E-01  1.28977624E-01  7.28861451E-01  3.01331742E-01 -9.73739553E-03
 -7.26587678E-02 -1.71615520E-01  1.28977624E-01  7.28861451E-01  3.01331742E-01
 -9.73739553E-03 -7.26587678E-02 -1.71615520E-01  1.28977624E-01  7.28861451E-01
  3.01331742E-01 -9.73739553E-03 -7.26587678E-02 -1.71615520E-01  1.28977624E-01
  7.28861451E-01  3.01331742E-01 -9.73739553E-03 -7.26587678E-02 -1.71615520E-01
  1.28977624E-01  7.28861451E-01  3.01331742E-01 -9.73739553E-03 -7.26587678E-02
 -1.71615520E-01  1.28977624E-01  7.28861451E-01  3.01331742E-01 -9.73739553E-03
 -7.26587678E-02 -1.71615520E-01  1.28977624E-01  7.28861451E-01  3.01331742E-01
 -9.73739553E-03 -7.26587678E-02 -1.71615520E-01  1.28977624E-01  7.28861451E-01
  3.01331742E-01 -9.73739553E-03 -7.26587678E-02 -1.71615520E-01  1.28977624E-01
  7.28861451E-01  3.01331742E-01 -9.73739553E-03 -7.26587678E-02 -1.71615520E-01
  1.28977624E-01  7.28861451E-01  3.01331742E-01
P(S=P) Contraction coefficients            R   N=         108
 -8.10494336E-03 -1.71547892E-02  7.36978576E-02  3.96514999E-01  4.97808488E-01
  1.17482582E-01 -8.10494336E-03 -1.71547892E-02  7.36978576E-02  3.96514999E-01
  4.97808488E-01  1.17482582E-01 -8.10494336E-03 -1.71547892E-02  7.36978576E-02
  3.96514999E-01  4.97808488E-01  1.17482582E-01 -8.10494336E-03 -1.71547892E-02
  7.36978576E-02  3.96514999E-01  4.97808488E-01  1.17482582E-01 -8.10494336E-03
 -1.71547892E-02  7.36978576E-02  3.96514999E-01  4.97808488E-01  1.17482582E-01
 -8.10494336E-03 -1.71547892E-02  7.36978576E-02  3.96514999E-01  4.97808488E-01
  1.17482582E-01 -8.10494336E-03 -1.71547892E-02  7.36978576E-02  3.96514999E-01
  4.97808488E-01  1.17482582E-01 -8.10494336E-03 -1.71547892E-02  7.36978576E-02
  3.96514999E-01  4.97808488E-01  1.17482582E-01 -8.10494336E-03 -1.71547892E-02
  7.36978576E-02  3.96514999E-01  4.97808488E-01  1.17482582E-01 -8.10494336E-03
 -1.71547892E-02  7.36978576E-02  3.96514999E-01  4.97808488E-01  1.17482582E-01
 -8.10494336E-03 -1.71547892E-02  7.36978576E-02  3.96514999E-01  4.97808488E-01
  1.17482582E-01 -8.10494336E-03 -1.71547892E-02  7.36978576E-02  3.96514999E-01
  4.97808488E-01  1.17482582E-01 -8.10494336E-03 -1.71547892E-02  7.36978576E-02
  3.96514999E-01  4.97808488E-01  1.17482582E-01 -8.10494336E-03 -1.71547892E-02
  7.36978576E-02  3.96514999E-01  4.97808488E-01  1.17482582E-01 -8.10494336E-03
 -1.71547892E-02  7.36978576E-02  3.96514999E-01  4.97808488E-01  1.17482582E-01
  0.00000000E+00  0.00000000E+00  0.00000000E+00  0.00000000E+00  0.00000000E+00
  0.00000000E+00  0.00000000E+00  0.00000000E+00  0.00000000E+00  0.00000000E+00
  0.00000000E+00  0.00000000E+00  0.00000000E+00  0.00000000E+00  0.00000000E+00
  0.00000000E+00  0.00000000E+00  0.00000000E+00
Coordinates of each shell                  R   N=          54
  7.39071887E+00  4.87549340E-01  1.55505563E+01  7.67984697E+00  2.79301521E+00
  1.55486666E+01  8.24676481E+00 -9.95885668E-01  1.73646934E+01  9.57524227E+00
  3.77945225E-02  1.95133120E+01  8.07102028E+00  1.54390624E+00  2.13463463E+01
  8.23731618E+00  3.84181321E+00  2.14805169E+01  6.59892363E+00  1.96531517E-01
  2.28146635E+01  4.88494203E+00  1.27934459E+00  2.47270663E+01  5.68051673E+00
  8.88171279E-02  2.71383569E+01  5.58980988E+00 -2.20908984E+00  2.74293747E+01
  6.57813664E+00  1.67618707E+00  2.88410001E+01  7.86692986E+00  7.40772641E-01
  3.10708769E+01  2.12972134E+00  6.23609621E-01  2.42395170E+01  4.68652079E-01
  1.27556513E+00  2.65279753E+01  1.27367541E+00  1.97854325E+00  2.19132641E+01
  6.42289447E+00 -4.35916448E-01  1.40342981E+01  6.87909841E+00  1.50670961E+00
  3.26602295E+01  9.83429712E+00  1.20262017E+00  3.10025029E+01
Num ILSW                                   I              100
ILSW                                       I   N=         100
           0           0           0           0           2           0
           0           0           0           0           0          -1
           5           0           0           0           0           0
           0           0           0           0           0           0
           1           1           0           0           0           0
           0           0      100000           0          -1           0
           0           0           0           0           0           0
           0           0           0          40           0           0
           0 -2000000000           1           0           0           0
           0           0           4          52           0           0
           0           1           0           0           0           0
           0           0           0          18           0           1
           0           0           0           0           0           0
           0           0           0           0           0           0
           0           0           0           0           0           0
           0           0           0           0           0           0
           0           0           0           0
Num RLSW                                   I               52
RLSW                                       R   N=          52
  1.00000000E+00  1.00000000E+00  1.00000000E+00  1.00000000E+00  1.00000000E+00
  0.00000000E+00  0.00000000E+00  1.00000000E+00  0.00000000E+00  0.00000000E+00
  0.00000000E+00  0.00000000E+00  1.00000000E+00  0.00000000E+00  0.00000000E+00
  0.00000000E+00  0.00000000E+00  1.00000000E+00  0.00000000E+00  0.00000000E+00
  0.00000000E+00  0.00000000E+00  1.00000000E+00  0.00000000E+00  0.00000000E+00
  0.00000000E+00  0.00000000E+00  1.00000000E+00  0.00000000E+00  0.00000000E+00
  0.00000000E+00  0.00000000E+00  1.00000000E+00  0.00000000E+00  0.00000000E+00
  0.00000000E+00  0.00000000E+00  0.00000000E+00  1.00000000E+00  1.00000000E+00
  0.00000000E+00  1.00000000E+00  0.00000000E+00  0.00000000E+00  0.00000000E+00
  0.00000000E+00  0.00000000E+00  0.00000000E+00  0.00000000E+00  0.00000000E+00
  0.00000000E+00  0.00000000E+00
MxBond                                     I                3
NBond                                      I   N=          18
           3           1           2           2           3           1
           2           3           3           1           2           3
           3           1           1           1           1           1
IBond                                      I   N=          54
           2           3          16           1           0           0
           1           4           0           3           5           0
           4           6           7           5           0           0
           5           8           0           7           9          13
           8          10          11           9           0           0
           9          12           0          11          17          18
           8          14          15          13           0           0
          13           0           0           1           0           0
          12           0           0          12           0           0
RBond                                      R   N=          54
  2.00000000E+00  1.50000000E+00  1.00000000E+00  2.00000000E+00  0.00000000E+00
  0.00000000E+00  1.50000000E+00  1.00000000E+00  0.00000000E+00  1.00000000E+00
  1.00000000E+00  0.00000000E+00  1.00000000E+00  2.00000000E+00  1.50000000E+00
  2.00000000E+00  0.00000000E+00  0.00000000E+00  1.50000000E+00  1.00000000E+00
  0.00000000E+00  1.00000000E+00  1.00000000E+00  1.00000000E+00  1.00000000E+00
  2.00000000E+00  1.50000000E+00  2.00000000E+00  0.00000000E+00  0.00000000E+00
  1.50000000E+00  1.00000000E+00  0.00000000E+00  1.00000000E+00  1.00000000E+00
  1.00000000E+00  1.00000000E+00  1.00000000E+00  1.00000000E+00  1.00000000E+00
  0.00000000E+00  0.00000000E+00  1.00000000E+00  0.00000000E+00  0.00000000E+00
  1.00000000E+00  0.00000000E+00  0.00000000E+00  1.00000000E+00  0.00000000E+00
  0.00000000E+00  1.00000000E+00  0.00000000E+00  0.00000000E+00
Virial Ratio                               R      9.972304892985770E-01
SCF Energy                                 R     -4.007720669114860E-01
Total Energy                               R     -4.007720669114860E-01
RMS Density                                R      7.884531394706417E-09
Job Status                                 I                1
Nuclear derivative order                   I                0
External E-field                           R   N=          35
  0.00000000E+00  0.00000000E+00  0.00000000E+00  0.00000000E+00  0.00000000E+00
  0.00000000E+00  0.00000000E+00  0.00000000E+00  0.00000000E+00  0.00000000E+00
  0.00000000E+00  0.00000000E+00  0.00000000E+00  0.00000000E+00  0.00000000E+00
  0.00000000E+00  0.00000000E+00  0.00000000E+00  0.00000000E+00  0.00000000E+00
  0.00000000E+00  0.00000000E+00  0.00000000E+00  0.00000000E+00  0.00000000E+00
  0.00000000E+00  0.00000000E+00  0.00000000E+00  0.00000000E+00  0.00000000E+00
  0.00000000E+00  0.00000000E+00  0.00000000E+00  0.00000000E+00  0.00000000E+00
IOpCl                                      I                0
IROHF                                      I                0
Alpha Orbital Energies                     R   N=          63
 -1.84578338E+00 -1.77563798E+00 -1.75017387E+00 -1.72001633E+00 -1.68690002E+00
 -1.63212766E+00 -1.60841129E+00 -1.55032723E+00 -1.49327373E+00 -1.42528092E+00
 -1.37453596E+00 -1.32577382E+00 -1.28698357E+00 -1.23886956E+00 -1.22651989E+00
 -1.20103432E+00 -1.18873879E+00 -1.16635848E+00 -1.13427203E+00 -1.12587811E+00
 -1.11223993E+00 -1.09475854E+00 -1.08738692E+00 -1.06691841E+00 -1.05419614E+00
 -1.04379308E+00 -1.02426448E+00 -9.95604627E-01 -9.91158133E-01 -9.58631523E-01
 -9.34341548E-01 -9.27628437E-01 -9.25780002E-01 -8.54061571E-01 -7.73786937E-01
 -6.63212611E-01 -6.61500603E-01 -6.31555883E-01 -6.23161203E-01 -6.14400183E-01
 -6.05217552E-01 -5.93381851E-01 -5.74911734E-01 -5.72696062E-01 -5.51313410E-01
 -5.30988352E-01 -5.06089177E-01 -4.97912552E-01 -4.85079012E-01 -4.79823267E-01
 -4.74447113E-01 -4.61839001E-01 -4.56994025E-01 -4.48091600E-01 -4.45174290E-01
 -4.24843469E-01 -4.07803982E-01 -4.06024811E-01 -3.85878377E-01 -3.60747883E-01
 -3.58174870E-01 -3.25332593E-01 -2.43498688E-01
Alpha MO coefficients                      R   N=        3969
 -7.55350526E-04 -2.20312556E-04 -7.66815114E-06 -3.19201761E-04 -4.47520311E-04
 -6.46333517E-05  3.20392866E-04 -2.01306375E-04 -1.35737933E-03 -2.94320986E-04
 -4.50579507E-04 -8.19808340E-05 -5.18439075E-05 -9.57033500E-04  6.27352841E-04
  2.20992391E-03  1.74555551E-02 -9.01582931E-03 -1.27637920E-03  1.41703520E-02
  7.10845837E-03 -2.40504408E-03 -6.80801028E-03  2.78293468E-03  6.88400717E-02
 -1.34187467E-02  1.11491325E-02  3.66822595E-02  1.42711224E-01  3.28594968E-02
 -6.22296783E-02  7.92139673E-02  5.33053679E-01  3.48915890E-02 -1.66932606E-01
  1.08651853E-01  5.65622498E-01  2.15502982E-02  2.89154372E-01 -1.57205246E-02
  3.91071820E-01 -2.91203950E-02 -1.85957643E-01 -5.38363577E-02  1.48386935E-01
 -5.23512994E-02  9.29577210E-03 -9.29878353E-02  3.74681639E-02  3.44956952E-02
 -2.06634939E-03  2.35311576E-02  1.53626906E-02  1.51327239E-02 -3.78347299E-03
 -2.91691520E-03  5.84016524E-04  3.65412277E-03 -1.28132339E-03  3.42318198E-03
 -1.66363791E-04  4.43885660E-02  4.03726129E-02  5.55257038E-02  1.16775646E-02
  9.28637511E-03  2.81336001E-02  4.10462006E-02 -5.34721453E-04 -2.69754002E-02
  8.56825383E-03  8.49685755E-02 -3.25773769E-03  4.21452252E-02  2.03458802E-02
  1.45162914E-01 -7.66120011E-02  5.66906913E-02  5.20035235E-02  5.40388879E-01
 -8.11874016E-02  1.25000737E-01  9.15923656E-02  4.60427482E-01 -4.25010716E-02
 -2.77113285E-01  3.46656967E-03  4.81390073E-01  6.69153000E-02  1.81939903E-01
 -6.18501232E-02  1.79339005E-01  7.77574037E-02 -2.00661313E-02 -8.63166993E-02
  9.11951247E-03 -2.96636687E-03  4.61676258E-02 -6.38695286E-02 -7.43829090E-02
 -1.54686571E-03 -1.72110281E-02 -1.22044026E-02 -2.57798661E-02 -4.01399439E-03
  1.50936599E-02 -1.89979811E-02 -2.42985645E-02  6.83293127E-03 -2.72730410E-03
  9.41641385E-03  4.23679816E-02  3.86123445E-02  9.66215810E-03 -9.17616496E-03
  3.26041369E-03  5.26351530E-03  1.63731644E-04 -3.85238435E-03  1.91805819E-02
  1.38619879E-02 -4.81681764E-03  8.92027836E-03  1.07428818E-02 -8.76255099E-03
 -6.76611535E-03 -4.15458848E-03 -8.07668241E-04 -7.27785142E-04 -1.63422343E-03
 -3.38100825E-03 -5.55614792E-05  2.05896198E-03 -6.28498599E-04 -5.63221894E-03
  8.99154688E-05 -2.33093257E-03 -7.76098650E-04 -5.70930953E-03  2.93668147E-03
 -8.91896366E-04 -5.52526021E-04 -1.21112776E-02  2.66477235E-03  9.51232514E-04
 -4.71380447E-04 -6.44974878E-03  9.12745555E-04  4.97372769E-03  9.14792188E-04
 -2.20874228E-02  3.83601189E-03  3.21970517E-03  1.35271764E-03  2.68192288E-02
  1.80419690E-02  3.22468804E-02  4.46205489E-02  8.44433241E-02  1.03222224E-01
  3.81989371E-01  1.39352169E-01 -5.39257411E-01  1.90799003E-02 -9.31850114E-02
  5.66723677E-02  5.99897732E-01  1.18597126E-02 -1.46275567E-01  4.09992072E-03
  2.90584056E-01 -7.14803701E-02  5.43164839E-02 -1.29398736E-01 -8.46576498E-03
 -3.66429838E-03  7.53365958E-03  2.49740629E-03  7.88371141E-04  1.32528272E-03
  2.41652204E-03  1.46982852E-03 -3.02820074E-03 -1.30027475E-03  1.91660861E-03
 -7.29115618E-04 -9.26143650E-04  1.00652955E-01  8.89474451E-02  4.96858007E-01
  8.88336251E-02  1.40455072E-01  1.32682476E-01  4.95296532E-01 -1.58461234E-02
 -2.70319282E-01  3.61467713E-02  4.83819763E-01 -1.11810415E-02  2.05390184E-01
 -4.47351082E-02  1.95326240E-01 -8.40418290E-02 -1.34313458E-02 -1.21070116E-01
 -1.61542806E-02  2.48267032E-02 -6.88630605E-02 -7.45257893E-02 -1.01551574E-01
  9.25341167E-03  3.41843665E-02 -1.61409274E-02 -6.90048241E-02  9.49753898E-03
 -3.16854416E-02 -2.30737370E-02 -5.84296638E-02 -1.40898449E-02  8.82030867E-03
  1.38490124E-02 -1.06554739E-02  5.32480169E-03 -1.20233346E-02  2.48821529E-02
  1.73317156E-02  1.58271786E-03  1.28591226E-03  6.29107848E-03  1.66390574E-02
  4.32333584E-03 -6.38845632E-03  1.10269306E-02  1.66224306E-02 -3.59913448E-03
  2.60024147E-03 -5.53831610E-03 -2.11443733E-02 -1.33776125E-02 -4.27411553E-03
  7.25057223E-06 -5.28852635E-03 -3.73196510E-03  3.03342976E-04  2.88124032E-03
 -8.22101330E-03 -4.23472569E-03  1.97346135E-03 -4.62290712E-03  1.15487763E-01
  6.19135168E-03  5.10382106E-03  1.88253302E-03  1.03738020E-05  9.93090746E-03
 -3.30487226E-03  1.49699453E-02 -5.44425698E-04 -4.31547230E-03  1.20006748E-03
 -2.50287055E-02 -7.62310026E-04  9.25156789E-04 -1.12654054E-02 -7.25100777E-03
  1.54121767E-02  4.06083188E-02 -1.33654920E-03  6.81627133E-02  1.27995532E-01
  3.43810289E-01 -9.45904227E-02  5.52134242E-01  1.31619774E-02 -1.63640378E-01
 -3.89933641E-02 -4.79379867E-01  4.13775205E-02 -7.33268225E-02 -4.69922686E-02
 -3.59574233E-01 -4.96330500E-02  7.57122023E-02  5.18434932E-02 -1.04428589E-01
  3.68024669E-02 -9.63822678E-02  1.47947121E-01  1.29971484E-01  1.20241153E-02
 -2.04934655E-03  3.98772636E-02  6.49448220E-02  3.70504970E-02 -2.61926771E-02
  8.44851574E-02  1.03959927E-01 -1.83782508E-02  1.68584037E-02 -2.79208848E-02
 -1.63252368E-01 -8.59774916E-02 -3.14099334E-02 -6.66821871E-03 -5.12396895E-02
 -3.09061050E-02  3.14096732E-03  2.48926043E-02 -6.42780857E-02 -2.81579777E-02
  1.59078618E-02 -3.56243439E-02  3.47936628E-05  4.02786517E-02  3.33882367E-02
  6.68960605E-02 -2.39502236E-02  2.88887571E-01 -1.15702636E-01  5.07677768E-01
 -3.20570968E-02 -1.37404366E-01 -2.72164916E-02 -4.07107228E-01 -2.23890746E-02
 -8.21137622E-02 -6.68098489E-02 -2.85544869E-01  1.11717523E-01  2.26342138E-02
  5.24906307E-02 -1.45362117E-01  6.74213989E-03  1.88549606E-01  4.76582983E-02
  1.96094156E-01 -2.67822488E-03 -6.66982935E-03  1.06570897E-02 -8.94904148E-02
 -1.05142909E-01 -5.09119361E-03  1.27537597E-01  2.35001555E-01 -3.80177237E-02
 -3.69050815E-02  5.18869893E-02  1.33401375E-01 -4.56678385E-02  9.20869504E-02
 -9.84309125E-02 -1.02091501E-01 -1.61259953E-02  2.31282505E-02 -3.07022199E-02
 -4.78796371E-02 -6.03593299E-02  1.21234549E-02 -1.12698307E-01 -1.40640113E-01
  1.56923841E-02 -2.53141288E-02  2.60878798E-02  1.79113392E-01  4.86072877E-02
  3.96596259E-02  2.68469080E-02  8.67950644E-02  3.92928609E-02 -4.74830582E-03
 -3.54798580E-02  7.40414084E-02  2.01201947E-02 -1.55977288E-02  4.23586483E-02
  1.50069317E-02 -5.74902329E-02 -4.90479576E-02  3.66508349E-02  3.18333531E-02
 -2.19540665E-01  1.02060481E-01 -3.38516885E-01  2.28721783E-02  6.44310068E-02
  2.52777787E-02  3.55981514E-01  5.54333499E-03  8.00550600E-02 -1.72672982E-02
  8.92082429E-02 -2.40609114E-02 -2.69731166E-02 -1.21347791E-01 -1.17719340E-01
  8.75534451E-02  1.67892118E-01 -9.52231512E-02  2.06556880E-01  1.77304457E-02
 -9.29215692E-03 -2.81073480E-02 -2.61929642E-01 -1.11158483E-01 -5.83012268E-02
  1.16593655E-01  2.59567437E-01 -1.01661450E-01 -3.54996040E-02  1.26234709E-01
  2.12847591E-01 -6.75601317E-02  1.37658614E-01 -1.04032288E-01 -1.41080967E-01
 -2.49617199E-02  4.58677173E-02 -3.51967465E-02 -5.17326635E-02 -1.08066344E-01
  5.28015924E-03 -1.89744611E-01 -2.40514108E-01  1.97995860E-02 -4.45906701E-02
  3.47961078E-02  2.71892496E-01  4.21594341E-02  6.33770122E-02  4.98188911E-02
  1.53847302E-01  6.22142478E-02 -7.97669727E-03 -5.95276585E-02  1.17832980E-01
  2.44377838E-02 -2.35738994E-02  6.68271161E-02  1.50878067E-02 -1.01036557E-01
 -8.69021332E-02  1.06773802E-02  2.21600942E-03 -1.26691567E-02  5.64368049E-03
 -1.50320613E-02  9.06168551E-04 -3.40785910E-04  1.47707733E-03  1.93127619E-02
 -2.73338709E-03  4.06752376E-03 -1.06353737E-02 -1.90454781E-02  5.16204519E-03
 -5.26637997E-03 -1.55711264E-02 -3.04512775E-02 -1.00609208E-02  2.71094983E-02
 -6.71361791E-03  2.56104878E-02 -3.88919529E-03  5.41713794E-03 -2.38832843E-03
 -3.38233279E-03 -6.39507913E-02  3.50011116E-03  1.02823740E-03  9.41739494E-02
 -1.85537968E-01  2.89661698E-03 -1.29055447E-01 -2.38008928E-01 -5.78397496E-02
 -1.41368276E-01 -4.04380866E-02  1.17214662E-01 -1.90873703E-02 -6.98538997E-02
 -4.38089339E-03 -1.18516725E-02  1.62807963E-01  4.66933381E-02  3.11568918E-01
  4.23793754E-01 -1.11399328E-02  8.29221569E-02 -1.05189277E-02  4.59834073E-01
 -4.87794153E-02  1.29573859E-01 -2.86761818E-02  2.67495397E-01  7.14372798E-02
 -8.69787102E-03 -1.18199691E-01  3.25355001E-01  4.57393577E-02 -5.91664556E-02
  1.40166710E-01  4.12259017E-03  1.95976646E-01  1.63743608E-01 -1.71778134E-01
 -1.71614609E-02  1.33301870E-01 -4.13776342E-02  1.34130774E-01 -3.43224722E-03
  3.43379739E-02 -6.85572903E-03 -1.48045063E-01  6.46259009E-02 -2.60896589E-02
  1.87289302E-01  3.02728747E-01 -8.38215380E-02  5.84907203E-02  1.15916424E-01
  2.76447301E-01  8.02773442E-02 -1.81418912E-01 -1.22122362E-01 -1.68188129E-01
  2.81148554E-02 -7.11709886E-02 -4.50581190E-02 -1.31396861E-01  1.86061902E-01
 -3.17348585E-02 -2.30035933E-01 -2.19674219E-01 -1.50301621E-01  8.06573560E-02