Atom number=21                                                          
SP        RPM6                                                        ZDO                 
Number of atoms                            I               21
Info1-9                                    I   N=           9
          81          80           0           0           0         111
           1           8        2302
Full Title                                 C   N=           2
Atom number=21          
Route                                      C   N=           3
#p int=acc2e=12 pm6 charge nosymm   
Charge                                     I                3
Multiplicity                               I                1
Number of electrons                        I               80
Number of alpha electrons                  I               40
Number of beta electrons                   I               40
Number of basis functions                  I               72
Number of independent functions            I               72
Number of point charges in /Mol/           I                0
Number of translation vectors              I                0
Atomic numbers                             I   N=          21
           6           8           7           6           6           8
           7           6           6           6           6           8
           7           6           6           8           6           1
           1           1           1
Nuclear charges                            R   N=          21
  4.00000000E+00  6.00000000E+00  5.00000000E+00  4.00000000E+00  4.00000000E+00
  6.00000000E+00  5.00000000E+00  4.00000000E+00  4.00000000E+00  4.00000000E+00
  4.00000000E+00  6.00000000E+00  5.00000000E+00  4.00000000E+00  4.00000000E+00
  6.00000000E+00  4.00000000E+00  1.00000000E+00  1.00000000E+00  1.00000000E+00
  1.00000000E+00
Current cartesian coordinates              R   N=          63
  8.07102028E+00  1.54390624E+00  2.13463463E+01  8.23731618E+00  3.84181321E+00
  2.14805169E+01  6.59892363E+00  1.96531517E-01  2.28146635E+01  4.88494203E+00
  1.27934459E+00  2.47270663E+01  5.68051673E+00  8.88171279E-02  2.71383569E+01
  5.58980988E+00 -2.20908984E+00  2.74293747E+01  6.57813664E+00  1.67618707E+00
  2.88410001E+01  7.86692986E+00  7.40772641E-01  3.10708769E+01  2.12972134E+00
  6.23609621E-01  2.42395170E+01  4.68652079E-01  1.27556513E+00  2.65279753E+01
  6.47042225E+00  1.82358571E+00  3.33177613E+01  5.92618113E+00  3.98732212E+00
  3.32818565E+01  5.99610099E+00  2.43774670E-01  3.52377230E+01  4.83580915E+00
  9.75098680E-01  3.76112191E+01  1.07487622E+01  1.41729459E+00  3.09707215E+01
  1.18372444E+01  2.45664396E-01  2.87918672E+01  1.21320417E+01  3.96842486E-01
  3.32005983E+01  9.15376630E+00  4.59799978E-01  2.00269196E+01  1.51698277E+00
  1.59344086E+00  2.25744372E+01  5.89806459E+00  1.18311104E-01  3.91032112E+01
  2.94697379E+00  2.61302352E-01  3.77175574E+01
Number of symbols in /Mol/                 I                0
Int Atom Types                             I   N=          21
           0           0           0           0           0           0
           0           0           0           0           0           0
           0           0           0           0           0           0
           0           0           0
Force Field                                I                0
Atom Types                                 C   N=          21
                                                            
                                                            
                                                            
                                                            
            
MM charges                                 R   N=          21
  0.00000000E+00  0.00000000E+00  0.00000000E+00  0.00000000E+00  0.00000000E+00
  0.00000000E+00  0.00000000E+00  0.00000000E+00  0.00000000E+00  0.00000000E+00
  0.00000000E+00  0.00000000E+00  0.00000000E+00  0.00000000E+00  0.00000000E+00
  0.00000000E+00  0.00000000E+00  0.00000000E+00  0.00000000E+00  0.00000000E+00
  0.00000000E+00
Integer atomic weights                     I   N=          21
          12          16          14          12          12          16
          14          12          12          12          12          16
          14          12          12          16          12           1
           1           1           1
Real atomic weights                        R   N=          21
  1.20000000E+01  1.59949146E+01  1.40030740E+01  1.20000000E+01  1.20000000E+01
  1.59949146E+01  1.40030740E+01  1.20000000E+01  1.20000000E+01  1.20000000E+01
  1.20000000E+01  1.59949146E+01  1.40030740E+01  1.20000000E+01  1.20000000E+01
  1.59949146E+01  1.20000000E+01  1.00782504E+00  1.00782504E+00  1.00782504E+00
  1.00782504E+00
Atom fragment info                         I   N=          21
           0           0           0           0           0           0
           0           0           0           0           0           0
           0           0           0           0           0           0
           0           0           0
Atom residue num                           I   N=          21
           0           0           0           0           0           0
           0           0           0           0           0           0
           0           0           0           0           0           0
           0           0           0
Nuclear spins                              I   N=          21
           0           0           2           0           0           0
           2           0           0           0           0           0
           2           0           0           0           0           1
           1           1           1
Nuclear ZEff                               R   N=          21
 -3.90000000E+00 -6.00000000E+00 -4.90000000E+00 -3.90000000E+00 -3.90000000E+00
 -6.00000000E+00 -4.90000000E+00 -3.90000000E+00 -3.90000000E+00 -3.90000000E+00
 -3.90000000E+00 -6.00000000E+00 -4.90000000E+00 -3.90000000E+00 -3.90000000E+00
 -6.00000000E+00 -3.90000000E+00 -1.00000000E+00 -1.00000000E+00 -1.00000000E+00
 -1.00000000E+00
Nuclear ZNuc                               R   N=          21
  6.00000000E+00  8.00000000E+00  7.00000000E+00  6.00000000E+00  6.00000000E+00
  8.00000000E+00  7.00000000E+00  6.00000000E+00  6.00000000E+00  6.00000000E+00
  6.00000000E+00  8.00000000E+00  7.00000000E+00  6.00000000E+00  6.00000000E+00
  8.00000000E+00  6.00000000E+00  1.00000000E+00  1.00000000E+00  1.00000000E+00
  1.00000000E+00
Nuclear QMom                               R   N=          21
  0.00000000E+00  0.00000000E+00  2.04400000E+00  0.00000000E+00  0.00000000E+00
  0.00000000E+00  2.04400000E+00  0.00000000E+00  0.00000000E+00  0.00000000E+00
  0.00000000E+00  0.00000000E+00  2.04400000E+00  0.00000000E+00  0.00000000E+00
  0.00000000E+00  0.00000000E+00  0.00000000E+00  0.00000000E+00  0.00000000E+00
  0.00000000E+00
Nuclear GFac                               R   N=          21
  0.00000000E+00  0.00000000E+00  4.03761000E-01  0.00000000E+00  0.00000000E+00
  0.00000000E+00  4.03761000E-01  0.00000000E+00  0.00000000E+00  0.00000000E+00
  0.00000000E+00  0.00000000E+00  4.03761000E-01  0.00000000E+00  0.00000000E+00
  0.00000000E+00  0.00000000E+00  2.79284600E+00  2.79284600E+00  2.79284600E+00
  2.79284600E+00
MicOpt                                     I   N=          21
          -1          -1          -1          -1          -1          -1
          -1          -1          -1          -1          -1          -1
          -1          -1          -1          -1          -1          -1
          -1          -1          -1
Number of residues                         I                0
Number of secondary structures             I                0
Number of contracted shells                I               21
Number of primitive shells                 I              126
Pure/Cartesian d shells                    I                0
Pure/Cartesian f shells                    I                0
Highest angular momentum                   I                1
Largest degree of contraction              I                6
Shell types                                I   N=          21
          -1          -1          -1          -1          -1          -1
          -1          -1          -1          -1          -1          -1
          -1          -1          -1          -1          -1           0
           0           0           0
Number of primitives per shell             I   N=          21
           6           6           6           6           6           6
           6           6           6           6           6           6
           6           6           6           6           6           6
           6           6           6
Shell to atom map                          I   N=          21
           1           2           3           4           5           6
           7           8           9          10          11          12
          13          14          15          16          17          18
          19          20          21
Primitive exponents                        R   N=         126
  1.14476344E+01  3.29633588E+00  1.29653143E+00  5.92558930E-01  2.94896438E-01
  1.51447622E-01  8.02643074E+01  2.31120341E+01  9.09054165E+00  4.15468650E+00
  2.06764625E+00  1.06186467E+00  1.54719623E+01  4.45513742E+00  1.75231709E+00
  8.00868468E-01  3.98565014E-01  2.04687870E-01  1.14476344E+01  3.29633588E+00
  1.29653143E+00  5.92558930E-01  2.94896438E-01  1.51447622E-01  1.14476344E+01
  3.29633588E+00  1.29653143E+00  5.92558930E-01  2.94896438E-01  1.51447622E-01
  8.02643074E+01  2.31120341E+01  9.09054165E+00  4.15468650E+00  2.06764625E+00
  1.06186467E+00  1.54719623E+01  4.45513742E+00  1.75231709E+00  8.00868468E-01
  3.98565014E-01  2.04687870E-01  1.14476344E+01  3.29633588E+00  1.29653143E+00
  5.92558930E-01  2.94896438E-01  1.51447622E-01  1.14476344E+01  3.29633588E+00
  1.29653143E+00  5.92558930E-01  2.94896438E-01  1.51447622E-01  1.14476344E+01
  3.29633588E+00  1.29653143E+00  5.92558930E-01  2.94896438E-01  1.51447622E-01
  1.14476344E+01  3.29633588E+00  1.29653143E+00  5.92558930E-01  2.94896438E-01
  1.51447622E-01  8.02643074E+01  2.31120341E+01  9.09054165E+00  4.15468650E+00
  2.06764625E+00  1.06186467E+00  1.54719623E+01  4.45513742E+00  1.75231709E+00
  8.00868468E-01  3.98565014E-01  2.04687870E-01  1.14476344E+01  3.29633588E+00
  1.29653143E+00  5.92558930E-01  2.94896438E-01  1.51447622E-01  1.14476344E+01
  3.29633588E+00  1.29653143E+00  5.92558930E-01  2.94896438E-01  1.51447622E-01
  8.02643074E+01  2.31120341E+01  9.09054165E+00  4.15468650E+00  2.06764625E+00
  1.06186467E+00  1.14476344E+01  3.29633588E+00  1.29653143E+00  5.92558930E-01
  2.94896438E-01  1.51447622E-01  4.39461478E+00  1.26542531E+00  4.97723458E-01
  2.27476537E-01  1.13207340E-01  5.81389949E-02  4.39461478E+00  1.26542531E+00
  4.97723458E-01  2.27476537E-01  1.13207340E-01  5.81389949E-02  4.39461478E+00
  1.26542531E+00  4.97723458E-01  2.27476537E-01  1.13207340E-01  5.81389949E-02
  4.39461478E+00  1.26542531E+00  4.97723458E-01  2.27476537E-01  1.13207340E-01
  5.81389949E-02
Contraction coefficients                   R   N=         126
 -9.73739553E-03 -7.26587678E-02 -1.71615520E-01  1.28977624E-01  7.28861451E-01
  3.01331742E-01 -9.73739553E-03 -7.26587678E-02 -1.71615520E-01  1.28977624E-01
  7.28861451E-01  3.01331742E-01 -9.73739553E-03 -7.26587678E-02 -1.71615520E-01
  1.28977624E-01  7.28861451E-01  3.01331742E-01 -9.73739553E-03 -7.26587678E-02
 -1.71615520E-01  1.28977624E-01  7.28861451E-01  3.01331742E-01 -9.73739553E-03
 -7.26587678E-02 -1.71615520E-01  1.28977624E-01  7.28861451E-01  3.01331742E-01
 -9.73739553E-03 -7.26587678E-02 -1.71615520E-01  1.28977624E-01  7.28861451E-01
  3.01331742E-01 -9.73739553E-03 -7.26587678E-02 -1.71615520E-01  1.28977624E-01
  7.28861451E-01  3.01331742E-01 -9.73739553E-03 -7.26587678E-02 -1.71615520E-01
  1.28977624E-01  7.28861451E-01  3.01331742E-01 -9.73739553E-03 -7.26587678E-02
 -1.71615520E-01  1.28977624E-01  7.28861451E-01  3.01331742E-01 -9.73739553E-03
 -7.26587678E-02 -1.71615520E-01  1.28977624E-01  7.28861451E-01  3.01331742E-01
 -9.73739553E-03 -7.26587678E-02 -1.71615520E-01  1.28977624E-01  7.28861451E-01
  3.01331742E-01 -9.73739553E-03 -7.26587678E-02 -1.71615520E-01  1.28977624E-01
  7.28861451E-01  3.01331742E-01 -9.73739553E-03 -7.26587678E-02 -1.71615520E-01
  1.28977624E-01  7.28861451E-01  3.01331742E-01 -9.73739553E-03 -7.26587678E-02
 -1.71615520E-01  1.28977624E-01  7.28861451E-01  3.01331742E-01 -9.73739553E-03
 -7.26587678E-02 -1.71615520E-01  1.28977624E-01  7.28861451E-01  3.01331742E-01
 -9.73739553E-03 -7.26587678E-02 -1.71615520E-01  1.28977624E-01  7.28861451E-01
  3.01331742E-01 -9.73739553E-03 -7.26587678E-02 -1.71615520E-01  1.28977624E-01
  7.28861451E-01  3.01331742E-01 -9.73739553E-03 -7.26587678E-02 -1.71615520E-01
  1.28977624E-01  7.28861451E-01  3.01331742E-01 -9.73739553E-03 -7.26587678E-02
 -1.71615520E-01  1.28977624E-01  7.28861451E-01  3.01331742E-01 -9.73739553E-03
 -7.26587678E-02 -1.71615520E-01  1.28977624E-01  7.28861451E-01  3.01331742E-01
 -9.73739553E-03 -7.26587678E-02 -1.71615520E-01  1.28977624E-01  7.28861451E-01
  3.01331742E-01
P(S=P) Contraction coefficients            R   N=         126
 -8.10494336E-03 -1.71547892E-02  7.36978576E-02  3.96514999E-01  4.97808488E-01
  1.17482582E-01 -8.10494336E-03 -1.71547892E-02  7.36978576E-02  3.96514999E-01
  4.97808488E-01  1.17482582E-01 -8.10494336E-03 -1.71547892E-02  7.36978576E-02
  3.96514999E-01  4.97808488E-01  1.17482582E-01 -8.10494336E-03 -1.71547892E-02
  7.36978576E-02  3.96514999E-01  4.97808488E-01  1.17482582E-01 -8.10494336E-03
 -1.71547892E-02  7.36978576E-02  3.96514999E-01  4.97808488E-01  1.17482582E-01
 -8.10494336E-03 -1.71547892E-02  7.36978576E-02  3.96514999E-01  4.97808488E-01
  1.17482582E-01 -8.10494336E-03 -1.71547892E-02  7.36978576E-02  3.96514999E-01
  4.97808488E-01  1.17482582E-01 -8.10494336E-03 -1.71547892E-02  7.36978576E-02
  3.96514999E-01  4.97808488E-01  1.17482582E-01 -8.10494336E-03 -1.71547892E-02
  7.36978576E-02  3.96514999E-01  4.97808488E-01  1.17482582E-01 -8.10494336E-03
 -1.71547892E-02  7.36978576E-02  3.96514999E-01  4.97808488E-01  1.17482582E-01
 -8.10494336E-03 -1.71547892E-02  7.36978576E-02  3.96514999E-01  4.97808488E-01
  1.17482582E-01 -8.10494336E-03 -1.71547892E-02  7.36978576E-02  3.96514999E-01
  4.97808488E-01  1.17482582E-01 -8.10494336E-03 -1.71547892E-02  7.36978576E-02
  3.96514999E-01  4.97808488E-01  1.17482582E-01 -8.10494336E-03 -1.71547892E-02
  7.36978576E-02  3.96514999E-01  4.97808488E-01  1.17482582E-01 -8.10494336E-03
 -1.71547892E-02  7.36978576E-02  3.96514999E-01  4.97808488E-01  1.17482582E-01
 -8.10494336E-03 -1.71547892E-02  7.36978576E-02  3.96514999E-01  4.97808488E-01
  1.17482582E-01 -8.10494336E-03 -1.71547892E-02  7.36978576E-02  3.96514999E-01
  4.97808488E-01  1.17482582E-01  0.00000000E+00  0.00000000E+00  0.00000000E+00
  0.00000000E+00  0.00000000E+00  0.00000000E+00  0.00000000E+00  0.00000000E+00
  0.00000000E+00  0.00000000E+00  0.00000000E+00  0.00000000E+00  0.00000000E+00
  0.00000000E+00  0.00000000E+00  0.00000000E+00  0.00000000E+00  0.00000000E+00
  0.00000000E+00  0.00000000E+00  0.00000000E+00  0.00000000E+00  0.00000000E+00
  0.00000000E+00
Coordinates of each shell                  R   N=          63
  8.07102028E+00  1.54390624E+00  2.13463463E+01  8.23731618E+00  3.84181321E+00
  2.14805169E+01  6.59892363E+00  1.96531517E-01  2.28146635E+01  4.88494203E+00
  1.27934459E+00  2.47270663E+01  5.68051673E+00  8.88171279E-02  2.71383569E+01
  5.58980988E+00 -2.20908984E+00  2.74293747E+01  6.57813664E+00  1.67618707E+00
  2.88410001E+01  7.86692986E+00  7.40772641E-01  3.10708769E+01  2.12972134E+00
  6.23609621E-01  2.42395170E+01  4.68652079E-01  1.27556513E+00  2.65279753E+01
  6.47042225E+00  1.82358571E+00  3.33177613E+01  5.92618113E+00  3.98732212E+00
  3.32818565E+01  5.99610099E+00  2.43774670E-01  3.52377230E+01  4.83580915E+00
  9.75098680E-01  3.76112191E+01  1.07487622E+01  1.41729459E+00  3.09707215E+01
  1.18372444E+01  2.45664396E-01  2.87918672E+01  1.21320417E+01  3.96842486E-01
  3.32005983E+01  9.15376630E+00  4.59799978E-01  2.00269196E+01  1.51698277E+00
  1.59344086E+00  2.25744372E+01  5.89806459E+00  1.18311104E-01  3.91032112E+01
  2.94697379E+00  2.61302352E-01  3.77175574E+01
Num ILSW                                   I              100
ILSW                                       I   N=         100
           0           0           0           0           2           0
           0           0           0           0           0          -1
           5           0           0           0           0           0
           0           0           0           0           0           0
           1           1           0           0           0           0
           0           0      100000           0          -1           0
           0           0           0           0           0           0
           0           0           0          40           0           0
           0 -2000000000           1           0           0           0
           0           0           4          52           0           0
           0           1           0           0           0           0
           0           0           0          21           0           1
           0           0           0           0           0           0
           0           0           0           0           0           0
           0           0           0           0           0           0
           0           0           0           0           0           0
           0           0           0           0
Num RLSW                                   I               52
RLSW                                       R   N=          52
  1.00000000E+00  1.00000000E+00  1.00000000E+00  1.00000000E+00  1.00000000E+00
  0.00000000E+00  0.00000000E+00  1.00000000E+00  0.00000000E+00  0.00000000E+00
  0.00000000E+00  0.00000000E+00  1.00000000E+00  0.00000000E+00  0.00000000E+00
  0.00000000E+00  0.00000000E+00  1.00000000E+00  0.00000000E+00  0.00000000E+00
  0.00000000E+00  0.00000000E+00  1.00000000E+00  0.00000000E+00  0.00000000E+00
  0.00000000E+00  0.00000000E+00  1.00000000E+00  0.00000000E+00  0.00000000E+00
  0.00000000E+00  0.00000000E+00  1.00000000E+00  0.00000000E+00  0.00000000E+00
  0.00000000E+00  0.00000000E+00  0.00000000E+00  1.00000000E+00  1.00000000E+00
  0.00000000E+00  1.00000000E+00  0.00000000E+00  0.00000000E+00  0.00000000E+00
  0.00000000E+00  0.00000000E+00  0.00000000E+00  0.00000000E+00  0.00000000E+00
  0.00000000E+00  0.00000000E+00
MxBond                                     I                3
NBond                                      I   N=          21
           3           1           2           3           3           1
           2           3           3           1           3           1
           2           3           3           1           1           1
           1           1           1
IBond                                      I   N=          63
           2           3          18           1           0           0
           1           4           0           3           5           9
           4           6           7           5           0           0
           5           8           0           7          11          15
           4          10          19           9           0           0
           8          12          13          11           0           0
          11          14           0          13          20          21
           8          16          17          15           0           0
          15           0           0           1           0           0
           9           0           0          14           0           0
          14           0           0
RBond                                      R   N=          63
  2.00000000E+00  1.50000000E+00  1.00000000E+00  2.00000000E+00  0.00000000E+00
  0.00000000E+00  1.50000000E+00  1.00000000E+00  0.00000000E+00  1.00000000E+00
  1.00000000E+00  1.00000000E+00  1.00000000E+00  2.00000000E+00  1.50000000E+00
  2.00000000E+00  0.00000000E+00  0.00000000E+00  1.50000000E+00  1.00000000E+00
  0.00000000E+00  1.00000000E+00  1.00000000E+00  1.00000000E+00  1.00000000E+00
  1.00000000E+00  1.00000000E+00  1.00000000E+00  0.00000000E+00  0.00000000E+00
  1.00000000E+00  2.00000000E+00  1.50000000E+00  2.00000000E+00  0.00000000E+00
  0.00000000E+00  1.50000000E+00  1.00000000E+00  0.00000000E+00  1.00000000E+00
  1.00000000E+00  1.00000000E+00  1.00000000E+00  1.00000000E+00  1.00000000E+00
  1.00000000E+00  0.00000000E+00  0.00000000E+00  1.00000000E+00  0.00000000E+00
  0.00000000E+00  1.00000000E+00  0.00000000E+00  0.00000000E+00  1.00000000E+00
  0.00000000E+00  0.00000000E+00  1.00000000E+00  0.00000000E+00  0.00000000E+00
  1.00000000E+00  0.00000000E+00  0.00000000E+00
Virial Ratio                               R      1.000559995795392E+00
SCF Energy                                 R      9.549500859327509E-02
Total Energy                               R      9.549500859327509E-02
RMS Density                                R      6.884688751131376E-09
Job Status                                 I                1
Nuclear derivative order                   I                0
External E-field                           R   N=          35
  0.00000000E+00  0.00000000E+00  0.00000000E+00  0.00000000E+00  0.00000000E+00
  0.00000000E+00  0.00000000E+00  0.00000000E+00  0.00000000E+00  0.00000000E+00
  0.00000000E+00  0.00000000E+00  0.00000000E+00  0.00000000E+00  0.00000000E+00
  0.00000000E+00  0.00000000E+00  0.00000000E+00  0.00000000E+00  0.00000000E+00
  0.00000000E+00  0.00000000E+00  0.00000000E+00  0.00000000E+00  0.00000000E+00
  0.00000000E+00  0.00000000E+00  0.00000000E+00  0.00000000E+00  0.00000000E+00
  0.00000000E+00  0.00000000E+00  0.00000000E+00  0.00000000E+00  0.00000000E+00
IOpCl                                      I                0
IROHF                                      I                0
Alpha Orbital Energies                     R   N=          72
 -1.78072770E+00 -1.76387713E+00 -1.74889215E+00 -1.67256153E+00 -1.66297776E+00
 -1.65708152E+00 -1.63606940E+00 -1.61692601E+00 -1.55418672E+00 -1.49915990E+00
 -1.46883419E+00 -1.41523823E+00 -1.37246060E+00 -1.31172878E+00 -1.27503082E+00
 -1.25395803E+00 -1.18988254E+00 -1.17715168E+00 -1.16322933E+00 -1.14943801E+00
 -1.13652307E+00 -1.13144110E+00 -1.12380446E+00 -1.10584620E+00 -1.08491680E+00
 -1.06884951E+00 -1.06734887E+00 -1.05330673E+00 -1.04084253E+00 -1.02835539E+00
 -1.01389396E+00 -9.97738336E-01 -9.75474777E-01 -9.55012455E-01 -9.38119204E-01
 -9.33904856E-01 -9.23276841E-01 -8.98106242E-01 -8.95151227E-01 -8.29358195E-01
 -7.41926644E-01 -6.69927640E-01 -6.34400803E-01 -6.28948811E-01 -6.24001906E-01
 -6.21905776E-01 -5.76999895E-01 -5.76830788E-01 -5.67564084E-01 -5.63490288E-01
 -5.32033871E-01 -5.13410224E-01 -4.98092084E-01 -4.87175290E-01 -4.84862003E-01
 -4.77775983E-01 -4.76445450E-01 -4.67758592E-01 -4.62443668E-01 -4.56154335E-01
 -4.51428903E-01 -4.39687568E-01 -4.29399412E-01 -3.94514115E-01 -3.84313463E-01
 -3.83352610E-01 -3.68756957E-01 -3.65669271E-01 -3.58418038E-01 -3.46042480E-01
 -3.01202343E-01 -2.60982498E-01
Alpha MO coefficients                      R   N=        5184
  8.64189181E-03 -2.50670789E-03  1.31638954E-03  4.04225820E-03  6.48896895E-03
 -8.64589363E-04 -4.10956709E-03  6.46739240E-04  1.77899906E-02 -1.84460929E-03
  4.55267577E-03  6.86016776E-03  3.20734299E-02  7.21343400E-03 -1.12623215E-02
  1.70439967E-02  1.14310329E-01  1.34142249E-02 -1.09682737E-02  3.84777400E-02
  8.18165684E-02  5.33747085E-03  5.48478507E-02  1.59041143E-03  1.70099293E-01
  2.99126991E-03 -4.48628476E-02  3.60040913E-02  1.80050219E-01 -6.42052533E-02
  6.97709592E-02  3.78298020E-02  1.07834653E-02  6.84744095E-03  6.22584347E-04
  4.62261986E-03  4.57975697E-03  3.77354090E-03 -7.32408081E-04 -1.20703851E-03
  5.08948029E-01 -6.76086923E-02  2.38406158E-01  2.24461786E-02  6.15041813E-01
  7.74555699E-02 -3.08381551E-01  1.02725732E-02  2.48103035E-01  6.58802582E-05
  1.31636327E-01 -6.47785466E-02  7.47334874E-02  2.29678438E-02  3.94017804E-03
 -5.91630095E-02  4.36422777E-02 -4.08403195E-02 -5.63473426E-04  1.20217896E-02
 -4.17203668E-03 -5.86197329E-03  1.33319498E-03  2.59116743E-03  1.29923691E-02
 -1.22853600E-02  4.09397599E-03 -5.04726912E-03  2.00332947E-03  4.84041045E-03
  1.85928793E-02  2.04770188E-02  2.05476601E-01 -4.11925627E-02  5.06989985E-02
  6.17091911E-02  1.86663139E-01 -1.82631466E-02 -1.05631449E-01  8.68798694E-03
  2.55868640E-01  1.17448977E-03  8.53973604E-02  2.80322057E-02  2.47009926E-01
  5.30812277E-02 -7.39500266E-02  4.25475145E-02  4.94245360E-01  2.20856452E-02
 -1.07997691E-01  5.48134817E-02  4.27258939E-01  1.59881986E-02  2.54065041E-01
 -2.29890942E-02  3.53422925E-01 -3.21447082E-02 -1.53528521E-01 -7.17570125E-02
  9.72316541E-02 -3.38032556E-02 -6.37458797E-03 -9.83687111E-02  9.95743684E-02
  5.34472755E-02  1.05826440E-02  1.90470223E-02  3.43310202E-02  2.44782274E-02
 -4.80034563E-03 -1.37516823E-02 -9.87915948E-02  2.47596089E-02 -6.72491028E-02
 -4.19970730E-02 -1.53120975E-01 -1.58820462E-02  6.82294629E-02 -1.24694148E-02
 -6.97457276E-02  2.03303017E-03 -3.56714212E-02  8.38255416E-03 -2.59226237E-02
 -7.47685024E-03 -1.49569648E-04  1.78000157E-02  2.38147911E-02 -1.66721776E-02
 -9.18691922E-03 -1.65701340E-02  2.03965151E-02 -1.10796958E-02  3.93869173E-03
  7.38622529E-03 -2.68790755E-05 -1.28844033E-03 -6.54008560E-04 -3.17520443E-03
  5.48833646E-02  6.11710416E-02 -7.15584206E-03 -7.18124304E-03  4.75189476E-01
 -6.04676887E-02  1.64183561E-01  9.93196948E-02  5.09393396E-01 -3.69814939E-02
 -2.63543707E-01  9.14616219E-03  3.61958425E-01  6.68536168E-02  1.62274764E-01
 -6.66942113E-02  7.69734604E-02  5.08610967E-02  1.22151934E-02 -1.13010653E-01
 -2.11270813E-01 -1.54199238E-02  7.78292246E-02 -8.74843737E-02 -2.36069310E-01
 -9.01968170E-03 -1.25434215E-01 -2.05704175E-03 -1.95005654E-01  1.20838453E-02
  8.38991026E-02  1.64455627E-02 -7.16604205E-02  2.19204000E-02 -1.21738583E-03
  5.37793356E-02  2.26265966E-02  1.21136145E-02  1.02000210E-02 -2.20576155E-02
 -3.21473876E-03 -2.70886892E-03  1.73139756E-03 -3.28569183E-03  3.40815137E-02
 -1.34228621E-02  3.13615682E-02  2.64759380E-02  6.63957821E-02  5.37412285E-03
 -2.69405087E-02  7.98264122E-03  3.12789352E-02 -1.51598338E-03  1.57204280E-02
 -8.88594763E-04  1.32175258E-02  3.54679404E-03 -1.95161343E-04 -8.41053263E-03
 -2.05862918E-02  1.29776192E-02  6.40569961E-03  9.01776278E-03 -1.44442363E-02
  7.31761457E-03 -2.72153818E-03 -5.95133991E-03 -2.37610389E-03  2.15768327E-03
 -8.10415255E-05  3.01896020E-03  1.34865050E-01  3.51042937E-02  3.76127391E-03
  3.76202876E-03  4.20276759E-02  5.80186703E-02  1.43459696E-01 -3.91678411E-02
  2.59368247E-01  6.30831714E-03 -7.35789526E-02 -1.51998052E-02 -2.31886909E-01
  5.15966246E-02 -3.38135608E-02 -4.32147037E-02 -2.29822052E-01  3.16063280E-02
  7.15239891E-02  6.09874957E-02 -1.71313308E-02  1.02831191E-01  2.09428167E-01
  1.79333995E-01 -2.95830208E-01  2.29619710E-02 -7.48341562E-02  6.41581638E-02
  4.64242315E-01  3.96179882E-02 -1.02384844E-01  5.13752602E-02  3.00971323E-01
 -1.96252455E-02  5.02257500E-02 -1.07018685E-01 -2.34265379E-01 -4.31131243E-02
 -4.22968276E-02  6.00426731E-03 -8.88131082E-02 -3.79327270E-02  7.22395327E-03
  4.64267511E-02  8.52315438E-03  5.46642445E-02 -5.76635739E-02 -1.02893199E-01
 -1.02503948E-01  6.42105466E-03  2.22146656E-02 -3.31714846E-02 -8.03286075E-02
  1.53413938E-02 -3.15602278E-02 -2.27574765E-02 -5.22127757E-02 -1.08372015E-02
  5.11994564E-03  2.46290620E-02  2.04936724E-01 -3.96503909E-02 -5.90013839E-02
 -4.12983446E-02  1.98271804E-01 -4.83119354E-02  2.96354474E-02  7.17960789E-02
  7.40088772E-02 -3.03885380E-02  1.01741275E-02 -4.41109654E-02  1.15586322E-02
 -2.03529927E-01 -1.72263972E-02 -1.61570568E-02  3.28886445E-02  8.35623570E-02
  1.99063733E-01 -6.00794801E-02  3.50739808E-01  1.05402358E-02 -9.11724737E-02
 -2.24355708E-02 -3.13234774E-01  4.52831474E-02 -6.56538473E-02 -3.70581118E-02
 -3.08400311E-01  1.14697074E-02  2.65965323E-02  4.82143317E-02 -1.36233954E-02
 -1.57815613E-02 -3.03882470E-01  4.92930399E-02  4.64364238E-01  3.50312682E-03
  1.12065964E-01 -8.20507822E-03 -2.44697786E-01 -1.01563232E-03  2.44111279E-02
  2.23312988E-02 -1.12671989E-01  1.64781863E-03 -2.85990605E-02  4.79964053E-02
 -2.79908810E-01 -4.11317205E-02 -6.85796876E-02  1.50388032E-02 -1.10636576E-01
 -4.61632906E-02  4.03353940E-03  5.72178964E-02  1.12285310E-02 -2.14666509E-02
 -1.23330344E-02  5.92317295E-02 -1.35226544E-03 -6.02913699E-03 -3.62569155E-03
  1.81010184E-02  9.42336728E-02 -7.93755866E-03  2.65806908E-02  6.76665899E-03
  4.73878976E-02  1.05257172E-02 -6.05668708E-03 -2.30918936E-02 -9.30308338E-02
  1.11692589E-02  2.69813640E-02  2.23585544E-02 -1.03221056E-01  2.20507386E-02
 -1.50691749E-02 -3.47606869E-02 -3.40518196E-02  1.26514432E-02 -4.76703362E-03
  2.08969324E-02  7.24794184E-03 -2.59985977E-01  1.59357207E-02  1.46593750E-02
 -1.14186254E-03 -8.65353512E-03 -1.99142133E-02  6.27424895E-03 -3.39756308E-02
 -1.20574463E-03  8.15877041E-03  2.33859255E-03  3.23685513E-02 -3.70207316E-03
  6.86619420E-03  2.15183536E-03  2.68370553E-02 -1.13746691E-03 -2.50046790E-03
 -6.86414624E-03 -1.33056052E-03  2.18955577E-03  2.43553743E-02 -2.65729841E-03
 -4.05222955E-02 -4.35826227E-05 -1.02449223E-02  1.78772535E-03  1.65883392E-02
  3.22154400E-03 -1.01428780E-02  3.29013130E-03  9.22537454E-02 -4.50461771E-03