 Entering Gaussian System, Link 0=g16
 Input=4znn_01_gebf_pm6_6.gjf
 Output=4znn_01_gebf_pm6_6.log
 Initial command:
 /work/01114/jfonner/frontera/gaussian/16rC.01/g16/l1.exe "/scratch1/08249/sa748948/lsqc/36120880/Gau-187804.inp" -scrdir="/scratch1/08249/sa748948/lsqc/36120880/"
 Entering Link 1 = /work/01114/jfonner/frontera/gaussian/16rC.01/g16/l1.exe PID=    187814.
  
 Copyright (c) 1988-2019, Gaussian, Inc.  All Rights Reserved.
  
 This is part of the Gaussian(R) 16 program.  It is based on
 the Gaussian(R) 09 system (copyright 2009, Gaussian, Inc.),
 the Gaussian(R) 03 system (copyright 2003, Gaussian, Inc.),
 the Gaussian(R) 98 system (copyright 1998, Gaussian, Inc.),
 the Gaussian(R) 94 system (copyright 1995, Gaussian, Inc.),
 the Gaussian 92(TM) system (copyright 1992, Gaussian, Inc.),
 the Gaussian 90(TM) system (copyright 1990, Gaussian, Inc.),
 the Gaussian 88(TM) system (copyright 1988, Gaussian, Inc.),
 the Gaussian 86(TM) system (copyright 1986, Carnegie Mellon
 University), and the Gaussian 82(TM) system (copyright 1983,
 Carnegie Mellon University). Gaussian is a federally registered
 trademark of Gaussian, Inc.
  
 This software contains proprietary and confidential information,
 including trade secrets, belonging to Gaussian, Inc.
  
 This software is provided under written license and may be
 used, copied, transmitted, or stored only in accord with that
 written license.
  
 The following legend is applicable only to US Government
 contracts under FAR:
  
                    RESTRICTED RIGHTS LEGEND
  
 Use, reproduction and disclosure by the US Government is
 subject to restrictions as set forth in subparagraphs (a)
 and (c) of the Commercial Computer Software - Restricted
 Rights clause in FAR 52.227-19.
  
 Gaussian, Inc.
 340 Quinnipiac St., Bldg. 40, Wallingford CT 06492
  
  
 ---------------------------------------------------------------
 Warning -- This program may not be used in any manner that
 competes with the business of Gaussian, Inc. or will provide
 assistance to any competitor of Gaussian, Inc.  The licensee
 of this program is prohibited from giving any competitor of
 Gaussian, Inc. access to this program.  By using this program,
 the user acknowledges that Gaussian, Inc. is engaged in the
 business of creating and licensing software in the field of
 computational chemistry and represents and warrants to the
 licensee that it is not a competitor of Gaussian, Inc. and that
 it will not use this program in any manner prohibited above.
 ---------------------------------------------------------------
  

 Cite this work as:
 Gaussian 16, Revision C.01,
 M. J. Frisch, G. W. Trucks, H. B. Schlegel, G. E. Scuseria, 
 M. A. Robb, J. R. Cheeseman, G. Scalmani, V. Barone, 
 G. A. Petersson, H. Nakatsuji, X. Li, M. Caricato, A. V. Marenich, 
 J. Bloino, B. G. Janesko, R. Gomperts, B. Mennucci, H. P. Hratchian, 
 J. V. Ortiz, A. F. Izmaylov, J. L. Sonnenberg, D. Williams-Young, 
 F. Ding, F. Lipparini, F. Egidi, J. Goings, B. Peng, A. Petrone, 
 T. Henderson, D. Ranasinghe, V. G. Zakrzewski, J. Gao, N. Rega, 
 G. Zheng, W. Liang, M. Hada, M. Ehara, K. Toyota, R. Fukuda, 
 J. Hasegawa, M. Ishida, T. Nakajima, Y. Honda, O. Kitao, H. Nakai, 
 T. Vreven, K. Throssell, J. A. Montgomery, Jr., J. E. Peralta, 
 F. Ogliaro, M. J. Bearpark, J. J. Heyd, E. N. Brothers, K. N. Kudin, 
 V. N. Staroverov, T. A. Keith, R. Kobayashi, J. Normand, 
 K. Raghavachari, A. P. Rendell, J. C. Burant, S. S. Iyengar, 
 J. Tomasi, M. Cossi, J. M. Millam, M. Klene, C. Adamo, R. Cammi, 
 J. W. Ochterski, R. L. Martin, K. Morokuma, O. Farkas, 
 J. B. Foresman, and D. J. Fox, Gaussian, Inc., Wallingford CT, 2019.
 
 ******************************************
 Gaussian 16:  ES64L-G16RevC.01  3-Jul-2019
                 5-Jan-2022 
 ******************************************
 %chk=4znn_01_gebf_pm6_6.chk
 %nproc=56
 Will use up to   56 processors via shared memory.
 %mem=3gb
 ---------------------------------
 #p int=acc2e=12 pm6 charge nosymm
 ---------------------------------
 1/18=10,28=-2,38=1,125=101,172=1/1;
 2/12=2,15=1,17=6,18=5,40=1/2;
 3/5=2,25=1,27=12,41=3900000/1,2,3;
 4/35=1/1;
 5/5=2,35=1,38=5,87=12/2;
 6/7=2,8=2,9=2,10=2,28=1,87=12/1;
 99/5=1,9=1/99;
 Leave Link    1 at Wed Jan  5 15:21:27 2022, MaxMem=   402653184 cpu:               2.6 elap:               0.5
 (Enter /work/01114/jfonner/frontera/gaussian/16rC.01/g16/l101.exe)
 --------------
 Atom number=21
 --------------
 Symbolic Z-matrix:
 Charge =  3 Multiplicity = 1
 c                     4.271     0.817     11.296 
 o                     4.359     2.033     11.367 
 n                     3.492     0.104     12.073 
 c                     2.585     0.677     13.085 
 c                     3.006     0.047     14.361 
 o                     2.958    -1.169     14.515 
 n                     3.481     0.887     15.262 
 c                     4.163     0.392     16.442 
 c                     1.127     0.33      12.827 
 c                     0.248     0.675     14.038 
 c                     3.424     0.965     17.631 
 o                     3.136     2.11      17.612 
 n                     3.173     0.129     18.647 
 c                     2.559     0.516     19.903 
 c                     5.688     0.75      16.389 
 o                     6.264     0.13      15.236 
 c                     6.42      0.21      17.569 
 h                     4.84396   0.24332   10.59779 
 h                     0.80275   0.84321   11.94588 
 h                     3.12112   0.06261   20.69253 
 h                     1.55947   0.13828   19.95927 
 
 ITRead=  0  0  0  0  0  0  0  0  0  0  0  0  0  0  0  0  0  0  0  0
 ITRead=  0
 MicOpt= -1 -1 -1 -1 -1 -1 -1 -1 -1 -1 -1 -1 -1 -1 -1 -1 -1 -1 -1 -1
 MicOpt= -1
 NAtoms=     21 NQM=       21 NQMF=       0 NMMI=      0 NMMIF=      0
                NMic=       0 NMicF=      0.
                    Isotopes and Nuclear Properties:
 (Nuclear quadrupole moments (NQMom) in fm**2, nuclear magnetic moments (NMagM)
  in nuclear magnetons)

  Atom         1           2           3           4           5           6           7           8           9          10
 IAtWgt=          12          16          14          12          12          16          14          12          12          12
 AtmWgt=  12.0000000  15.9949146  14.0030740  12.0000000  12.0000000  15.9949146  14.0030740  12.0000000  12.0000000  12.0000000
 NucSpn=           0           0           2           0           0           0           2           0           0           0
 AtZEff=  -0.0000000  -0.0000000  -0.0000000  -0.0000000  -0.0000000  -0.0000000  -0.0000000  -0.0000000  -0.0000000  -0.0000000
 NQMom=    0.0000000   0.0000000   2.0440000   0.0000000   0.0000000   0.0000000   2.0440000   0.0000000   0.0000000   0.0000000
 NMagM=    0.0000000   0.0000000   0.4037610   0.0000000   0.0000000   0.0000000   0.4037610   0.0000000   0.0000000   0.0000000
 AtZNuc=   6.0000000   8.0000000   7.0000000   6.0000000   6.0000000   8.0000000   7.0000000   6.0000000   6.0000000   6.0000000

  Atom        11          12          13          14          15          16          17          18          19          20
 IAtWgt=          12          16          14          12          12          16          12           1           1           1
 AtmWgt=  12.0000000  15.9949146  14.0030740  12.0000000  12.0000000  15.9949146  12.0000000   1.0078250   1.0078250   1.0078250
 NucSpn=           0           0           2           0           0           0           0           1           1           1
 AtZEff=  -0.0000000  -0.0000000  -0.0000000  -0.0000000  -0.0000000  -0.0000000  -0.0000000  -0.0000000  -0.0000000  -0.0000000
 NQMom=    0.0000000   0.0000000   2.0440000   0.0000000   0.0000000   0.0000000   0.0000000   0.0000000   0.0000000   0.0000000
 NMagM=    0.0000000   0.0000000   0.4037610   0.0000000   0.0000000   0.0000000   0.0000000   2.7928460   2.7928460   2.7928460
 AtZNuc=   6.0000000   8.0000000   7.0000000   6.0000000   6.0000000   8.0000000   6.0000000   1.0000000   1.0000000   1.0000000

  Atom        21
 IAtWgt=           1
 AtmWgt=   1.0078250
 NucSpn=           1
 AtZEff=  -0.0000000
 NQMom=    0.0000000
 NMagM=    2.7928460
 AtZNuc=   1.0000000
 Background charge distribution read from input stream:
 Point Charges:
 XYZ=   -6.8150   -0.6680    1.6070 Q=    0.1840 A=    0.0000 R=    0.0000 C=    0.0000
 XYZ=   -5.7140    0.0020    2.3730 Q=    0.1690 A=    0.0000 R=    0.0000 C=    0.0000
 XYZ=   -4.3570   -0.6730    2.5880 Q=    0.1957 A=    0.0000 R=    0.0000 C=    0.0000
 XYZ=   -4.2120   -1.8700    2.4920 Q=   -0.4612 A=    0.0000 R=    0.0000 C=    0.0000
 XYZ=   -3.3810    0.1250    2.9530 Q=   -0.3003 A=    0.0000 R=    0.0000 C=    0.0000
 XYZ=   -2.0620   -0.3900    3.2740 Q=    0.2639 A=    0.0000 R=    0.0000 C=    0.0000
 XYZ=   -1.6360    0.1750    4.6000 Q=    0.1489 A=    0.0000 R=    0.0000 C=    0.0000
 XYZ=   -1.7440    1.3560    4.8620 Q=   -0.3095 A=    0.0000 R=    0.0000 C=    0.0000
 XYZ=   -0.9930   -0.0450    2.1970 Q=   -1.2213 A=    0.0000 R=    0.0000 C=    0.0000
 XYZ=    0.3900   -0.4880    2.6400 Q=    0.9359 A=    0.0000 R=    0.0000 C=    0.0000
 XYZ=   -1.3780   -0.6620    0.8970 Q=    0.8742 A=    0.0000 R=    0.0000 C=    0.0000
 XYZ=   -1.0950   -0.7000    5.4150 Q=   -0.4278 A=    0.0000 R=    0.0000 C=    0.0000
 XYZ=   -0.5720   -0.3110    6.6690 Q=    0.2444 A=    0.0000 R=    0.0000 C=    0.0000
 XYZ=    0.8400   -0.8540    6.7920 Q=    0.2936 A=    0.0000 R=    0.0000 C=    0.0000
 XYZ=    1.0270   -2.0220    6.7200 Q=   -0.4615 A=    0.0000 R=    0.0000 C=    0.0000
 XYZ=   -1.4110   -0.9130    7.7970 Q=   -1.2093 A=    0.0000 R=    0.0000 C=    0.0000
 XYZ=   -0.7270   -0.6450    9.1230 Q=    0.9838 A=    0.0000 R=    0.0000 C=    0.0000
 XYZ=   -2.8000   -0.3490    7.7890 Q=    0.9737 A=    0.0000 R=    0.0000 C=    0.0000
 XYZ=    1.8100    0.0020    7.0230 Q=   -0.6094 A=    0.0000 R=    0.0000 C=    0.0000
 XYZ=    3.1910   -0.4290    7.1010 Q=   -0.0383 A=    0.0000 R=    0.0000 C=    0.0000
 XYZ=    3.9110    0.2580    8.2290 Q=    0.2652 A=    0.0000 R=    0.0000 C=    0.0000
 XYZ=    4.0640    1.4780    8.2280 Q=   -0.5489 A=    0.0000 R=    0.0000 C=    0.0000
 XYZ=    3.8710   -0.1030    5.7480 Q=    0.4467 A=    0.0000 R=    0.0000 C=    0.0000
 XYZ=    5.2470   -0.6430    5.5810 Q=   -0.4177 A=    0.0000 R=    0.0000 C=    0.0000
 XYZ=    5.8610   -0.6890    4.3530 Q=   -0.2968 A=    0.0000 R=    0.0000 C=    0.0000
 XYZ=    6.1080   -1.1970    6.4480 Q=    0.2630 A=    0.0000 R=    0.0000 C=    0.0000
 XYZ=    7.0590   -1.2270    4.4820 Q=    0.6103 A=    0.0000 R=    0.0000 C=    0.0000
 XYZ=    7.2390   -1.5230    5.7510 Q=   -0.3347 A=    0.0000 R=    0.0000 C=    0.0000
 XYZ=    4.3640   -0.5270    9.1890 Q=   -0.5070 A=    0.0000 R=    0.0000 C=    0.0000
 XYZ=    5.0670    0.0200   10.3260 Q=    0.3996 A=    0.0000 R=    0.0000 C=    0.0000
 XYZ=    0.6740    1.0470   11.5960 Q=    0.9278 A=    0.0000 R=    0.0000 C=    0.0000
 XYZ=    3.3500   -0.1220   21.0140 Q=    0.1847 A=    0.0000 R=    0.0000 C=    0.0000
 XYZ=    3.3660   -1.3390   21.1400 Q=   -0.4163 A=    0.0000 R=    0.0000 C=    0.0000
 XYZ=    1.1380   -0.0210   19.9830 Q=   -0.2907 A=    0.0000 R=    0.0000 C=    0.0000
 XYZ=    0.3930    0.3940   18.8240 Q=   -0.3415 A=    0.0000 R=    0.0000 C=    0.0000
 XYZ=    0.4860    0.5010   21.1670 Q=    0.7765 A=    0.0000 R=    0.0000 C=    0.0000
 XYZ=    4.0670    0.6880   21.7680 Q=   -0.6191 A=    0.0000 R=    0.0000 C=    0.0000
 XYZ=    4.8880    0.2050   22.8510 Q=    0.2833 A=    0.0000 R=    0.0000 C=    0.0000
 XYZ=    4.3500    0.7690   24.1740 Q=    0.1730 A=    0.0000 R=    0.0000 C=    0.0000
 XYZ=    4.1610    1.9810   24.2690 Q=   -0.2861 A=    0.0000 R=    0.0000 C=    0.0000
 XYZ=    6.3620    0.6140   22.6520 Q=   -1.1933 A=    0.0000 R=    0.0000 C=    0.0000
 XYZ=    7.1520    0.2970   23.8740 Q=    0.8585 A=    0.0000 R=    0.0000 C=    0.0000
 XYZ=    6.9530   -0.1210   21.4550 Q=    0.9590 A=    0.0000 R=    0.0000 C=    0.0000
 XYZ=    4.0650   -0.1200   25.1510 Q=   -0.4907 A=    0.0000 R=    0.0000 C=    0.0000
 XYZ=    3.7200    0.3130   26.5150 Q=   -0.3576 A=    0.0000 R=    0.0000 C=    0.0000
 XYZ=    4.9410    0.1400   27.4200 Q=    0.0549 A=    0.0000 R=    0.0000 C=    0.0000
 XYZ=    5.7140   -0.8090   27.2870 Q=   -0.0565 A=    0.0000 R=    0.0000 C=    0.0000
 XYZ=    2.4990   -0.4220   27.0620 Q=    1.1023 A=    0.0000 R=    0.0000 C=    0.0000
 XYZ=    5.2500    0.9550   28.2940 Q=    0.3115 A=    0.0000 R=    0.0000 C=    0.0000
 Pt Chg Charge=              1.6878 electrons
 Pt Chg Dipole moment (Debye):
    X=              7.0830    Y=             -1.1808    Z=            145.3047  Tot=            145.4820
 Pt Chg Quadrupole moment (Debye-Ang):
   XX=            237.8903   YY=            -27.2309   ZZ=           3570.3829
   XY=            -33.2697   XZ=            406.1035   YZ=            -36.4366
 Pt Chg Traceless Quadrupole moment (Debye-Ang):
   XX=          -1022.4571   YY=          -1287.5783   ZZ=           2310.0354
   XY=            -33.2697   XZ=            406.1035   YZ=            -36.4366
 Pt Chg Octapole moment (Debye-Ang**2):
  XXX=           1293.3791  YYY=             19.2538  ZZZ=          92834.7874  XYY=            -29.3848
  XXY=           -160.6738  XXZ=           4320.4529  XZZ=          12317.9994  YZZ=          -1555.9357
  YYZ=           -287.2135  XYZ=           -499.8075
 Pt Chg Hexadecapole moment (Debye-Ang**3):
 XXXX=          16426.9580 YYYY=           -105.3505 ZZZZ=        2515545.7406 XXXY=          -1041.1289
 XXXZ=          34343.1241 YYYX=           -103.1768 YYYZ=            -11.8182 ZZZX=         343783.6187
 ZZZY=         -45033.5276 XXYY=           -364.6895 XXZZ=         102024.6298 YYZZ=          -4512.8553
 XXYZ=          -2505.8364 YYXZ=           -972.6876 ZZXY=          -9981.9004
 Leave Link  101 at Wed Jan  5 15:21:28 2022, MaxMem=   402653184 cpu:               6.7 elap:               1.1
 (Enter /work/01114/jfonner/frontera/gaussian/16rC.01/g16/l202.exe)
                          Input orientation:                          
 ---------------------------------------------------------------------
 Center     Atomic      Atomic             Coordinates (Angstroms)
 Number     Number       Type             X           Y           Z
 ---------------------------------------------------------------------
      1          6           0        4.271000    0.817000   11.296000
      2          8           0        4.359000    2.033000   11.367000
      3          7           0        3.492000    0.104000   12.073000
      4          6           0        2.585000    0.677000   13.085000
      5          6           0        3.006000    0.047000   14.361000
      6          8           0        2.958000   -1.169000   14.515000
      7          7           0        3.481000    0.887000   15.262000
      8          6           0        4.163000    0.392000   16.442000
      9          6           0        1.127000    0.330000   12.827000
     10          6           0        0.248000    0.675000   14.038000
     11          6           0        3.424000    0.965000   17.631000
     12          8           0        3.136000    2.110000   17.612000
     13          7           0        3.173000    0.129000   18.647000
     14          6           0        2.559000    0.516000   19.903000
     15          6           0        5.688000    0.750000   16.389000
     16          8           0        6.264000    0.130000   15.236000
     17          6           0        6.420000    0.210000   17.569000
     18          1           0        4.843965    0.243316   10.597789
     19          1           0        0.802753    0.843213   11.945878
     20          1           0        3.121121    0.062608   20.692528
     21          1           0        1.559471    0.138275   19.959272
 ---------------------------------------------------------------------
                    Distance matrix (angstroms):
                    1          2          3          4          5
     1  C    0.000000
     2  O    1.221246   0.000000
     3  N    1.311083   2.229611   0.000000
     4  C    2.462259   2.817328   1.474829   0.000000
     5  C    3.404020   3.839120   2.339741   1.484021   0.000000
     6  O    4.003764   4.703776   2.805183   2.364687   1.226652
     7  N    4.044522   4.153941   3.283737   2.363524   1.320237
     8  C    5.164650   5.337314   4.429599   3.720317   2.405875
     9  C    3.530703   3.934162   2.492552   1.520769   2.442107
    10  C    4.870653   5.087114   3.835466   2.523843   2.846977
    11  C    6.393085   6.422814   5.624705   4.631736   3.422039
    12  O    6.546139   6.364093   5.901804   4.780253   3.852515
    13  N    7.464325   7.617756   6.581783   5.619777   4.290036
    14  C    8.780774   8.854636   7.896147   6.819950   5.579743
    15  C    5.286873   5.350964   4.885447   4.533250   3.435130
    16  O    4.468514   4.713767   4.205857   4.296633   3.374474
    17  C    6.658617   6.784973   6.228197   5.918747   4.687561
    18  H    1.070000   2.007447   2.005857   3.387804   4.192661
    19  H    3.528706   3.794415   2.791889   2.121705   3.364680
    20  H    9.496635   9.611465   8.627603   7.651104   6.332594
    21  H    9.103040   9.233335   8.119675   6.971194   5.782856
                    6          7          8          9         10
     6  O    0.000000
     7  N    2.249150   0.000000
     8  C    2.757186   1.450017   0.000000
     9  C    2.906700   3.432316   4.721161   0.000000
    10  C    3.312396   3.463439   4.602883   1.535639   0.000000
    11  C    3.805334   2.370969   1.512670   5.362635   4.804240
    12  O    4.513860   2.671564   2.318438   5.486411   4.813860
    13  N    4.336410   3.482478   2.431315   6.172432   5.486039
    14  C    5.659414   4.746220   3.816636   7.221842   6.305888
    15  C    3.827184   2.481884   1.567354   5.802324   5.926755
    16  O    3.624483   2.884235   2.436654   5.677328   6.158286
    17  C    4.818091   3.797144   2.529289   7.107518   7.125852
    18  H    4.571218   4.901720   5.885628   4.335057   5.757108
    19  H    3.910816   4.262815   5.631161   1.070000   2.170950
    20  H    6.301216   5.504523   4.388736   8.118778   7.274105
    21  H    5.771044   5.130032   4.383371   7.147943   6.088472
                   11         12         13         14         15
    11  C    0.000000
    12  O    1.180818   0.000000
    13  N    1.339460   2.235387   0.000000
    14  C    2.472208   2.849991   1.450621   0.000000
    15  C    2.591232   3.139750   3.436485   4.711008   0.000000
    16  O    3.807736   4.398882   4.603173   5.971341   1.430239
    17  C    3.090289   3.794273   3.422229   4.522003   1.489907
    18  H    7.211323   7.456595   8.221617   9.585529   5.874287
    19  H    6.261500   6.257295   7.143753   8.155199   6.604216
    20  H    3.206088   3.698877   2.047263   1.070000   5.057838
    21  H    3.095285   3.447148   2.079812   1.070000   5.492340
                   16         17         18         19         20
    16  O    0.000000
    17  C    2.339578   0.000000
    18  H    4.852045   7.147221   0.000000
    19  H    6.415512   7.973326   4.302164   0.000000
    20  H    6.297295   4.545410  10.242294   9.082294   0.000000
    21  H    6.666480   5.416944   9.921506   8.079854   1.726888
                   21
    21  H    0.000000
 Symmetry turned off by external request.
 Stoichiometry    C10H4N3O4(3+)
 Framework group  C1[X(C10H4N3O4)]
 Deg. of freedom    57
 Full point group                 C1      NOp   1
 Rotational constants (GHZ):           0.7473760           0.3079644           0.2481033
 Leave Link  202 at Wed Jan  5 15:21:29 2022, MaxMem=   402653184 cpu:               2.8 elap:               0.5
 (Enter /work/01114/jfonner/frontera/gaussian/16rC.01/g16/l301.exe)
 Standard basis: VSTO-6G (5D, 7F)
 Ernie: Thresh=  0.10000D-02 Tol=  0.10000D-05 Strict=F.
  NNHCO=     0 NNPyr=     0 NCTC=     0               EPep=         0.000000000
    EC=       468.602546442  ECS=         4.912657520   EG=         0.470962235
   EHC=         0.001758105  EAt=      -105.484040378  AtH=         3.975308903
 EPDDG=         0.000000000  ECC=       473.987924302 EAtT=       109.459349282
    72 basis functions,   432 primitive gaussians,    72 cartesian basis functions
    40 alpha electrons       40 beta electrons
       nuclear repulsion energy       583.4472735839 Hartrees.
 IExCor=    0 DFT=F Ex=HF Corr=None ExCW=0 ScaHFX=  1.000000
 ScaDFX=  1.000000  1.000000  1.000000  1.000000 ScalE2=  1.000000  1.000000
 IRadAn=      5 IRanWt=     -1 IRanGd=            0 ICorTp=0 IEmpDi=  4
 Integral buffers will be    131072 words long.
 Regular integral format.
 Two-electron integral symmetry is turned off.
 Background charge distribution read from rwf.
 PtFMM for NChg=        70 BoxLen=    40.00 Levels= 1 LMax=20 SMax=    51.8 ICnFMM=     1:
 Self energy of the charges =        -2.9590524557 a.u.
 MM   energy of the charges =         0.0000000000 a.u.
 Nuclei-charges interaction =        10.4776459660 a.u.
 Nuclear repulsion after external point charges =      590.9658670943 Hartrees.
 Leave Link  301 at Wed Jan  5 15:21:30 2022, MaxMem=   402653184 cpu:               4.6 elap:               0.8
 (Enter /work/01114/jfonner/frontera/gaussian/16rC.01/g16/l302.exe)
 Do NDO integrals.
 NPDir=0 NMtPBC=     1 NCelOv=     1 NCel=       1 NClECP=     1 NCelD=      1
         NCelK=      1 NCelE2=     1 NClLst=     1 CellRange=     0.0.
 One-electron integrals computed using PRISM.
 NBasis=    72 RedAO= F EigKep=  0.00D+00  NBF=    72
 NBsUse=    72 1.00D-04 EigRej=  0.00D+00 NBFU=    72
 Leave Link  302 at Wed Jan  5 15:21:34 2022, MaxMem=   402653184 cpu:              23.1 elap:               4.1
 (Enter /work/01114/jfonner/frontera/gaussian/16rC.01/g16/l303.exe)
 DipDrv:  MaxL=1.
 Leave Link  303 at Wed Jan  5 15:21:34 2022, MaxMem=   402653184 cpu:               3.1 elap:               0.6
 (Enter /work/01114/jfonner/frontera/gaussian/16rC.01/g16/l401.exe)
 Simple Huckel Guess.
 JPrj=0 DoOrth=F DoCkMO=F.
 Leave Link  401 at Wed Jan  5 15:21:36 2022, MaxMem=   402653184 cpu:              13.3 elap:               2.0
 (Enter /work/01114/jfonner/frontera/gaussian/16rC.01/g16/l502.exe)
 Keep J ints in memory in canonical form, NReq=875322.
 FoFCou: FMM=F IPFlag=           0 FMFlag=           0 FMFlg1=           0
         NFxFlg=           0 DoJE=F BraDBF=F KetDBF=F FulRan=T
         wScrn=  0.000000 ICntrl=       600 IOpCl=  2 I1Cent=           0 NGrid=           0
         NMat0=    1 NMatS0=    174 NMatT0=    0 NMatD0=    1 NMtDS0=    0 NMtDT0=    0
 Symmetry not used in FoFCou.
 Two-electron integral symmetry not used.
 Closed shell SCF:
 Using DIIS extrapolation, IDIIS=  1040.
 Overlap will be assumed to be unity.
 NGot=   402653184 LenX=   402563065 LenY=   402557440
 Requested convergence on RMS density matrix=1.00D-08 within 128 cycles.
 Requested convergence on MAX density matrix=1.00D-06.
 Requested convergence on             energy=1.00D-06.
 No special actions if energy rises.

 Cycle   1  Pass 1  IDiag  1:
 E=  1.67202987201597    
 DIIS: error= 4.91D-02 at cycle   1 NSaved=   1.
 NSaved= 1 IEnMin= 1 EnMin=  1.67202987201597     IErMin= 1 ErrMin= 4.91D-02
 ErrMax= 4.91D-02  0.00D+00 EMaxC= 1.00D-01 BMatC= 2.95D-01 BMatP= 2.95D-01
 IDIUse=3 WtCom= 5.09D-01 WtEn= 4.91D-01
 Coeff-Com:  0.100D+01
 Coeff-En:   0.100D+01
 Coeff:      0.100D+01
 GapD=    2.000 DampG=2.000 DampE=0.500 DampFc=1.0000 IDamp=-1.
 RMSDP=3.07D-02 MaxDP=6.82D-01              OVMax= 0.00D+00

 Cycle   2  Pass 1  IDiag  1:
 E=  1.59415712498856     Delta-E=       -0.077872747027 Rises=F Damp=F
 DIIS: error= 6.69D-02 at cycle   2 NSaved=   2.
 NSaved= 2 IEnMin= 2 EnMin=  1.59415712498856     IErMin= 1 ErrMin= 4.91D-02
 ErrMax= 6.69D-02  0.00D+00 EMaxC= 1.00D-01 BMatC= 3.33D-01 BMatP= 2.95D-01
 IDIUse=2 WtCom= 0.00D+00 WtEn= 1.00D+00
 Coeff-En:   0.468D+00 0.532D+00
 Coeff:      0.468D+00 0.532D+00
 RMSDP=3.25D-02 MaxDP=6.75D-01 DE=-7.79D-02 OVMax= 0.00D+00

 Cycle   3  Pass 1  IDiag  1:
 E=  1.61826955120296     Delta-E=        0.024112426214 Rises=F Damp=F
 DIIS: error= 3.91D-02 at cycle   3 NSaved=   3.
 NSaved= 3 IEnMin= 2 EnMin=  1.59415712498856     IErMin= 3 ErrMin= 3.91D-02
 ErrMax= 3.91D-02  0.00D+00 EMaxC= 1.00D-01 BMatC= 2.22D-01 BMatP= 2.95D-01
 IDIUse=3 WtCom= 6.09D-01 WtEn= 3.91D-01
 Coeff-Com:  0.210D+00 0.353D+00 0.437D+00
 Coeff-En:   0.000D+00 0.504D+00 0.496D+00
 Coeff:      0.128D+00 0.412D+00 0.460D+00
 RMSDP=2.59D-02 MaxDP=4.72D-01 DE= 2.41D-02 OVMax= 0.00D+00

 Cycle   4  Pass 1  IDiag  1:
 E= 0.368287400760778     Delta-E=       -1.249982150442 Rises=F Damp=F
 DIIS: error= 2.49D-02 at cycle   4 NSaved=   4.
 NSaved= 4 IEnMin= 4 EnMin= 0.368287400760778     IErMin= 4 ErrMin= 2.49D-02
 ErrMax= 2.49D-02  0.00D+00 EMaxC= 1.00D-01 BMatC= 5.54D-02 BMatP= 2.22D-01
 IDIUse=3 WtCom= 7.51D-01 WtEn= 2.49D-01
 Coeff-Com: -0.117D+00 0.129D+00 0.290D+00 0.698D+00
 Coeff-En:   0.000D+00 0.000D+00 0.494D-01 0.951D+00
 Coeff:     -0.881D-01 0.970D-01 0.230D+00 0.761D+00
 RMSDP=8.96D-03 MaxDP=1.13D-01 DE=-1.25D+00 OVMax= 0.00D+00

 Cycle   5  Pass 1  IDiag  1:
 E= 0.157888000617845     Delta-E=       -0.210399400143 Rises=F Damp=F
 DIIS: error= 5.87D-03 at cycle   5 NSaved=   5.
 NSaved= 5 IEnMin= 5 EnMin= 0.157888000617845     IErMin= 5 ErrMin= 5.87D-03
 ErrMax= 5.87D-03  0.00D+00 EMaxC= 1.00D-01 BMatC= 5.69D-03 BMatP= 5.54D-02
 IDIUse=3 WtCom= 9.41D-01 WtEn= 5.87D-02
 Coeff-Com: -0.228D-01-0.536D-01 0.561D-01-0.885D-01 0.111D+01
 Coeff-En:   0.000D+00 0.000D+00 0.000D+00 0.000D+00 0.100D+01
 Coeff:     -0.215D-01-0.504D-01 0.528D-01-0.833D-01 0.110D+01
 RMSDP=4.86D-03 MaxDP=7.06D-02 DE=-2.10D-01 OVMax= 0.00D+00

 Cycle   6  Pass 1  IDiag  3:
 E= 0.119938672526246     Delta-E=       -0.037949328092 Rises=F Damp=F
 DIIS: error= 2.10D-03 at cycle   6 NSaved=   6.
 NSaved= 6 IEnMin= 6 EnMin= 0.119938672526246     IErMin= 6 ErrMin= 2.10D-03
 ErrMax= 2.10D-03  0.00D+00 EMaxC= 1.00D-01 BMatC= 8.65D-04 BMatP= 5.69D-03
 IDIUse=3 WtCom= 9.79D-01 WtEn= 2.10D-02
 Coeff-Com: -0.211D-02-0.180D-01 0.775D-02 0.194D-01-0.239D-01 0.102D+01
 Coeff-En:   0.000D+00 0.000D+00 0.000D+00 0.000D+00 0.000D+00 0.100D+01
 Coeff:     -0.207D-02-0.176D-01 0.759D-02 0.190D-01-0.234D-01 0.102D+01
 Gap=     0.086 Goal=   None    Shift=    0.000
 RMSDP=1.99D-03 MaxDP=2.43D-02 DE=-3.79D-02 OVMax= 7.09D-02

 Cycle   7  Pass 1  IDiag  3:
 E= 0.112579168053003     Delta-E=       -0.007359504473 Rises=F Damp=F
 DIIS: error= 1.04D-03 at cycle   7 NSaved=   7.
 NSaved= 7 IEnMin= 7 EnMin= 0.112579168053003     IErMin= 7 ErrMin= 1.04D-03
 ErrMax= 1.04D-03  0.00D+00 EMaxC= 1.00D-01 BMatC= 2.94D-04 BMatP= 8.65D-04
 IDIUse=3 WtCom= 9.90D-01 WtEn= 1.04D-02
 Coeff-Com:  0.134D-02-0.299D-02-0.974D-02 0.205D-01-0.679D-02-0.318D+00
 Coeff-Com:  0.132D+01
 Coeff-En:   0.000D+00 0.000D+00 0.000D+00 0.000D+00 0.000D+00 0.000D+00
 Coeff-En:   0.100D+01
 Coeff:      0.133D-02-0.296D-02-0.964D-02 0.203D-01-0.672D-02-0.315D+00
 Coeff:      0.131D+01
 Gap=     0.089 Goal=   None    Shift=    0.000
 RMSDP=2.06D-03 MaxDP=2.87D-02 DE=-7.36D-03 OVMax= 8.14D-02

 Cycle   8  Pass 1  IDiag  3:
 E= 0.109146970394249     Delta-E=       -0.003432197659 Rises=F Damp=F
 DIIS: error= 1.81D-03 at cycle   8 NSaved=   8.
 NSaved= 8 IEnMin= 8 EnMin= 0.109146970394249     IErMin= 7 ErrMin= 1.04D-03
 ErrMax= 1.81D-03  0.00D+00 EMaxC= 1.00D-01 BMatC= 3.68D-04 BMatP= 2.94D-04
 IDIUse=3 WtCom= 9.90D-01 WtEn= 1.04D-02
 Coeff-Com: -0.517D-02-0.963D-05-0.995D-02 0.135D-01 0.151D+00-0.273D+00
 Coeff-Com:  0.223D+00 0.901D+00
 Coeff-En:   0.000D+00 0.000D+00 0.000D+00 0.000D+00 0.000D+00 0.000D+00
 Coeff-En:   0.000D+00 0.100D+01
 Coeff:     -0.512D-02-0.953D-05-0.984D-02 0.134D-01 0.150D+00-0.271D+00
 Coeff:      0.221D+00 0.902D+00
 Gap=     0.089 Goal=   None    Shift=    0.000
 RMSDP=8.27D-04 MaxDP=7.88D-03 DE=-3.43D-03 OVMax= 2.40D-02

 Cycle   9  Pass 1  IDiag  3:
 E= 0.107297356522736     Delta-E=       -0.001849613872 Rises=F Damp=F
 DIIS: error= 1.39D-03 at cycle   9 NSaved=   9.
 NSaved= 9 IEnMin= 9 EnMin= 0.107297356522736     IErMin= 7 ErrMin= 1.04D-03
 ErrMax= 1.39D-03  0.00D+00 EMaxC= 1.00D-01 BMatC= 2.13D-04 BMatP= 2.94D-04
 IDIUse=3 WtCom= 9.90D-01 WtEn= 1.04D-02
 Coeff-Com:  0.387D-02 0.101D-02-0.207D-02-0.658D-02-0.669D-01 0.164D+00
 Coeff-Com:  0.184D-02-0.282D+01 0.373D+01
 Coeff-En:   0.000D+00 0.000D+00 0.000D+00 0.000D+00 0.000D+00 0.000D+00
 Coeff-En:   0.000D+00 0.000D+00 0.100D+01
 Coeff:      0.382D-02 0.100D-02-0.204D-02-0.651D-02-0.662D-01 0.163D+00
 Coeff:      0.182D-02-0.279D+01 0.370D+01
 Gap=     0.092 Goal=   None    Shift=    0.000
 RMSDP=2.53D-03 MaxDP=2.27D-02 DE=-1.85D-03 OVMax= 7.89D-02

 Cycle  10  Pass 1  IDiag  3:
 E= 0.103563943514359     Delta-E=       -0.003733413008 Rises=F Damp=F
 DIIS: error= 7.33D-04 at cycle  10 NSaved=  10.
 NSaved=10 IEnMin=10 EnMin= 0.103563943514359     IErMin=10 ErrMin= 7.33D-04
 ErrMax= 7.33D-04  0.00D+00 EMaxC= 1.00D-01 BMatC= 6.06D-05 BMatP= 2.13D-04
 IDIUse=3 WtCom= 9.93D-01 WtEn= 7.33D-03
 Coeff-Com:  0.583D-03-0.729D-03 0.342D-03 0.201D-02-0.185D-01 0.169D-01
 Coeff-Com:  0.179D+00 0.616D-01-0.592D+00 0.135D+01
 Coeff-En:   0.000D+00 0.000D+00 0.000D+00 0.000D+00 0.000D+00 0.000D+00
 Coeff-En:   0.000D+00 0.000D+00 0.000D+00 0.100D+01
 Coeff:      0.578D-03-0.724D-03 0.339D-03 0.199D-02-0.184D-01 0.168D-01
 Coeff:      0.178D+00 0.611D-01-0.588D+00 0.135D+01
 Gap=     0.090 Goal=   None    Shift=    0.000
 RMSDP=1.01D-03 MaxDP=1.06D-02 DE=-3.73D-03 OVMax= 3.26D-02

 Cycle  11  Pass 1  IDiag  3:
 E= 0.102350133293839     Delta-E=       -0.001213810221 Rises=F Damp=F
 DIIS: error= 5.93D-04 at cycle  11 NSaved=  11.
 NSaved=11 IEnMin=11 EnMin= 0.102350133293839     IErMin=11 ErrMin= 5.93D-04
 ErrMax= 5.93D-04  0.00D+00 EMaxC= 1.00D-01 BMatC= 4.05D-05 BMatP= 6.06D-05
 IDIUse=3 WtCom= 9.94D-01 WtEn= 5.93D-03
 Coeff-Com: -0.186D-02 0.301D-03 0.175D-02 0.314D-02 0.272D-01-0.663D-01
 Coeff-Com: -0.200D+00 0.807D+00-0.571D+00-0.645D+00 0.164D+01
 Coeff-En:   0.000D+00 0.000D+00 0.000D+00 0.000D+00 0.000D+00 0.000D+00
 Coeff-En:   0.000D+00 0.000D+00 0.000D+00 0.000D+00 0.100D+01
 Coeff:     -0.184D-02 0.299D-03 0.174D-02 0.312D-02 0.270D-01-0.659D-01
 Coeff:     -0.199D+00 0.803D+00-0.568D+00-0.641D+00 0.164D+01
 Gap=     0.089 Goal=   None    Shift=    0.000
 RMSDP=1.02D-03 MaxDP=9.06D-03 DE=-1.21D-03 OVMax= 2.67D-02

 Cycle  12  Pass 1  IDiag  3:
 E= 0.101258706586918     Delta-E=       -0.001091426707 Rises=F Damp=F
 DIIS: error= 4.53D-04 at cycle  12 NSaved=  12.
 NSaved=12 IEnMin=12 EnMin= 0.101258706586918     IErMin=12 ErrMin= 4.53D-04
 ErrMax= 4.53D-04  0.00D+00 EMaxC= 1.00D-01 BMatC= 2.92D-05 BMatP= 4.05D-05
 IDIUse=3 WtCom= 9.95D-01 WtEn= 4.53D-03
 Coeff-Com: -0.113D-03 0.783D-03 0.911D-03 0.141D-02 0.710D-02 0.168D-01
 Coeff-Com: -0.901D-02-0.324D+00 0.352D+00-0.255D+00-0.107D+01 0.227D+01
 Coeff-En:   0.000D+00 0.000D+00 0.000D+00 0.000D+00 0.000D+00 0.000D+00
 Coeff-En:   0.000D+00 0.000D+00 0.000D+00 0.000D+00 0.000D+00 0.100D+01
 Coeff:     -0.113D-03 0.780D-03 0.907D-03 0.140D-02 0.706D-02 0.167D-01
 Coeff:     -0.897D-02-0.322D+00 0.350D+00-0.253D+00-0.106D+01 0.227D+01
 Gap=     0.088 Goal=   None    Shift=    0.000
 RMSDP=1.90D-03 MaxDP=1.78D-02 DE=-1.09D-03 OVMax= 5.20D-02

 Cycle  13  Pass 1  IDiag  3:
 E= 0.995860923645751E-01 Delta-E=       -0.001672614222 Rises=F Damp=F
 DIIS: error= 5.82D-04 at cycle  13 NSaved=  13.
 NSaved=13 IEnMin=13 EnMin= 0.995860923645751E-01 IErMin=12 ErrMin= 4.53D-04
 ErrMax= 5.82D-04  0.00D+00 EMaxC= 1.00D-01 BMatC= 3.00D-05 BMatP= 2.92D-05
 IDIUse=3 WtCom= 9.95D-01 WtEn= 4.53D-03
 Coeff-Com: -0.770D-05 0.495D-03-0.552D-04 0.140D-02 0.549D-02-0.312D-01
 Coeff-Com:  0.801D-01-0.330D+00 0.407D+00-0.474D+00-0.879D-02 0.415D+00
 Coeff-Com:  0.935D+00
 Coeff-En:   0.000D+00 0.000D+00 0.000D+00 0.000D+00 0.000D+00 0.000D+00
 Coeff-En:   0.000D+00 0.000D+00 0.000D+00 0.000D+00 0.000D+00 0.000D+00
 Coeff-En:   0.100D+01
 Coeff:     -0.767D-05 0.493D-03-0.550D-04 0.140D-02 0.547D-02-0.310D-01
 Coeff:      0.798D-01-0.328D+00 0.405D+00-0.472D+00-0.875D-02 0.413D+00
 Coeff:      0.935D+00
 Gap=     0.089 Goal=   None    Shift=    0.000
 RMSDP=7.94D-04 MaxDP=9.72D-03 DE=-1.67D-03 OVMax= 2.36D-02

 Cycle  14  Pass 1  IDiag  3:
 E= 0.988901000355327E-01 Delta-E=       -0.000695992329 Rises=F Damp=F
 DIIS: error= 3.73D-04 at cycle  14 NSaved=  14.
 NSaved=14 IEnMin=14 EnMin= 0.988901000355327E-01 IErMin=14 ErrMin= 3.73D-04
 ErrMax= 3.73D-04  0.00D+00 EMaxC= 1.00D-01 BMatC= 1.85D-05 BMatP= 2.92D-05
 IDIUse=3 WtCom= 9.96D-01 WtEn= 3.73D-03
 Coeff-Com: -0.798D-03 0.212D-03-0.122D-02 0.164D-02 0.150D-01-0.488D-01
 Coeff-Com:  0.536D-01 0.141D+00-0.167D+00 0.303D+00-0.530D+00-0.107D+00
 Coeff-Com: -0.107D+01 0.241D+01
 Coeff-En:   0.000D+00 0.000D+00 0.000D+00 0.000D+00 0.000D+00 0.000D+00
 Coeff-En:   0.000D+00 0.000D+00 0.000D+00 0.000D+00 0.000D+00 0.000D+00
 Coeff-En:   0.000D+00 0.100D+01
 Coeff:     -0.795D-03 0.211D-03-0.121D-02 0.163D-02 0.149D-01-0.487D-01
 Coeff:      0.534D-01 0.140D+00-0.166D+00 0.302D+00-0.528D+00-0.106D+00
 Coeff:     -0.106D+01 0.240D+01
 Gap=     0.089 Goal=   None    Shift=    0.000
 RMSDP=1.92D-03 MaxDP=1.94D-02 DE=-6.96D-04 OVMax= 6.17D-02

 Cycle  15  Pass 1  IDiag  3:
 E= 0.976638276113135E-01 Delta-E=       -0.001226272424 Rises=F Damp=F
 DIIS: error= 8.88D-04 at cycle  15 NSaved=  15.
 NSaved=15 IEnMin=15 EnMin= 0.976638276113135E-01 IErMin=14 ErrMin= 3.73D-04
 ErrMax= 8.88D-04  0.00D+00 EMaxC= 1.00D-01 BMatC= 4.35D-05 BMatP= 1.85D-05
 IDIUse=3 WtCom= 9.96D-01 WtEn= 3.73D-03
 Coeff-Com: -0.751D-03 0.791D-04-0.653D-03 0.299D-02 0.103D-01-0.421D-01
 Coeff-Com:  0.335D-01 0.109D+00-0.136D+00 0.867D-01-0.994D-01 0.360D-01
 Coeff-Com: -0.137D+01 0.187D+01 0.502D+00
 Coeff-En:   0.000D+00 0.000D+00 0.000D+00 0.000D+00 0.000D+00 0.000D+00
 Coeff-En:   0.000D+00 0.000D+00 0.000D+00 0.000D+00 0.000D+00 0.000D+00
 Coeff-En:   0.000D+00 0.000D+00 0.100D+01
 Coeff:     -0.748D-03 0.788D-04-0.651D-03 0.298D-02 0.102D-01-0.420D-01
 Coeff:      0.334D-01 0.109D+00-0.135D+00 0.863D-01-0.991D-01 0.358D-01
 Coeff:     -0.137D+01 0.186D+01 0.504D+00
 Gap=     0.091 Goal=   None    Shift=    0.000
 RMSDP=4.67D-04 MaxDP=6.35D-03 DE=-1.23D-03 OVMax= 1.11D-02

 Cycle  16  Pass 1  IDiag  3:
 E= 0.972825900792031E-01 Delta-E=       -0.000381237532 Rises=F Damp=F
 DIIS: error= 2.99D-04 at cycle  16 NSaved=  16.
 NSaved=16 IEnMin=16 EnMin= 0.972825900792031E-01 IErMin=16 ErrMin= 2.99D-04
 ErrMax= 2.99D-04  0.00D+00 EMaxC= 1.00D-01 BMatC= 1.16D-05 BMatP= 1.85D-05
 IDIUse=3 WtCom= 9.97D-01 WtEn= 2.99D-03
 Coeff-Com: -0.600D-03-0.291D-04 0.499D-04 0.252D-02 0.144D-01-0.250D-01
 Coeff-Com:  0.176D-02 0.175D+00-0.243D+00-0.585D-01-0.112D+00 0.839D+00
 Coeff-Com:  0.776D+00-0.291D+01-0.446D+00 0.299D+01
 Coeff-En:   0.000D+00 0.000D+00 0.000D+00 0.000D+00 0.000D+00 0.000D+00
 Coeff-En:   0.000D+00 0.000D+00 0.000D+00 0.000D+00 0.000D+00 0.000D+00
 Coeff-En:   0.000D+00 0.000D+00 0.000D+00 0.100D+01
 Coeff:     -0.598D-03-0.290D-04 0.497D-04 0.251D-02 0.144D-01-0.249D-01
 Coeff:      0.176D-02 0.175D+00-0.242D+00-0.583D-01-0.112D+00 0.836D+00
 Coeff:      0.774D+00-0.290D+01-0.445D+00 0.298D+01
 Gap=     0.092 Goal=   None    Shift=    0.000
 RMSDP=2.18D-03 MaxDP=2.40D-02 DE=-3.81D-04 OVMax= 7.26D-02

 Cycle  17  Pass 1  IDiag  3:
 E= 0.964319212810096E-01 Delta-E=       -0.000850668798 Rises=F Damp=F
 DIIS: error= 1.02D-03 at cycle  17 NSaved=  17.
 NSaved=17 IEnMin=17 EnMin= 0.964319212810096E-01 IErMin=16 ErrMin= 2.99D-04
 ErrMax= 1.02D-03  0.00D+00 EMaxC= 1.00D-01 BMatC= 5.57D-05 BMatP= 1.16D-05
 IDIUse=3 WtCom= 9.97D-01 WtEn= 2.99D-03
 Coeff-Com: -0.741D-03-0.164D-03 0.376D-04 0.246D-02 0.165D-01-0.293D-01
 Coeff-Com: -0.243D-02 0.237D+00-0.289D+00-0.820D-01-0.343D-01 0.630D+00
 Coeff-Com:  0.532D+00-0.194D+01-0.921D+00 0.244D+01 0.448D+00
 Coeff-En:   0.000D+00 0.000D+00 0.000D+00 0.000D+00 0.000D+00 0.000D+00
 Coeff-En:   0.000D+00 0.000D+00 0.000D+00 0.000D+00 0.000D+00 0.000D+00
 Coeff-En:   0.000D+00 0.000D+00 0.000D+00 0.000D+00 0.100D+01
 Coeff:     -0.738D-03-0.163D-03 0.375D-04 0.245D-02 0.164D-01-0.292D-01
 Coeff:     -0.242D-02 0.236D+00-0.288D+00-0.817D-01-0.342D-01 0.629D+00
 Coeff:      0.531D+00-0.194D+01-0.918D+00 0.243D+01 0.449D+00
 Gap=     0.094 Goal=   None    Shift=    0.000
 RMSDP=4.61D-04 MaxDP=7.65D-03 DE=-8.51D-04 OVMax= 1.50D-02

 Cycle  18  Pass 1  IDiag  3:
 E= 0.961151972144307E-01 Delta-E=       -0.000316724067 Rises=F Damp=F
 DIIS: error= 2.54D-04 at cycle  18 NSaved=  18.
 NSaved=18 IEnMin=18 EnMin= 0.961151972144307E-01 IErMin=18 ErrMin= 2.54D-04
 ErrMax= 2.54D-04  0.00D+00 EMaxC= 1.00D-01 BMatC= 6.86D-06 BMatP= 1.16D-05
 IDIUse=3 WtCom= 9.97D-01 WtEn= 2.54D-03
 Coeff-Com: -0.669D-03-0.653D-04-0.221D-03 0.434D-03 0.123D-01-0.132D-01
 Coeff-Com: -0.130D-01 0.249D+00-0.320D+00 0.130D+00-0.598D-01-0.230D+00
 Coeff-Com: -0.458D+00 0.167D+01 0.122D+00-0.217D+01-0.336D+00 0.242D+01
 Coeff-En:   0.000D+00 0.000D+00 0.000D+00 0.000D+00 0.000D+00 0.000D+00
 Coeff-En:   0.000D+00 0.000D+00 0.000D+00 0.000D+00 0.000D+00 0.000D+00
 Coeff-En:   0.000D+00 0.000D+00 0.000D+00 0.000D+00 0.000D+00 0.100D+01
 Coeff:     -0.667D-03-0.652D-04-0.221D-03 0.433D-03 0.123D-01-0.131D-01
 Coeff:     -0.129D-01 0.249D+00-0.320D+00 0.130D+00-0.597D-01-0.230D+00
 Coeff:     -0.457D+00 0.166D+01 0.122D+00-0.217D+01-0.335D+00 0.242D+01
 Gap=     0.097 Goal=   None    Shift=    0.000
 RMSDP=1.51D-03 MaxDP=1.63D-02 DE=-3.17D-04 OVMax= 4.61D-02

 Cycle  19  Pass 1  IDiag  3:
 E= 0.958218005627032E-01 Delta-E=       -0.000293396652 Rises=F Damp=F
 DIIS: error= 6.80D-04 at cycle  19 NSaved=  19.
 NSaved=19 IEnMin=19 EnMin= 0.958218005627032E-01 IErMin=18 ErrMin= 2.54D-04
 ErrMax= 6.80D-04  0.00D+00 EMaxC= 1.00D-01 BMatC= 2.97D-05 BMatP= 6.86D-06
 IDIUse=3 WtCom= 9.97D-01 WtEn= 2.54D-03
 Coeff-Com: -0.501D-03 0.490D-05-0.494D-03-0.111D-03 0.125D-01-0.183D-01
 Coeff-Com: -0.523D-02 0.224D+00-0.274D+00 0.712D-01-0.399D-01-0.611D-01
 Coeff-Com: -0.357D+00 0.110D+01 0.391D-01-0.130D+01-0.606D+00 0.167D+01
 Coeff-Com:  0.551D+00
 Coeff-En:   0.000D+00 0.000D+00 0.000D+00 0.000D+00 0.000D+00 0.000D+00
 Coeff-En:   0.000D+00 0.000D+00 0.000D+00 0.000D+00 0.000D+00 0.000D+00
 Coeff-En:   0.000D+00 0.000D+00 0.000D+00 0.000D+00 0.000D+00 0.000D+00
 Coeff-En:   0.100D+01
 Coeff:     -0.500D-03 0.489D-05-0.493D-03-0.110D-03 0.125D-01-0.183D-01
 Coeff:     -0.521D-02 0.224D+00-0.273D+00 0.710D-01-0.398D-01-0.609D-01
 Coeff:     -0.356D+00 0.109D+01 0.390D-01-0.129D+01-0.604D+00 0.166D+01
 Coeff:      0.552D+00
 Gap=     0.097 Goal=   None    Shift=    0.000
 RMSDP=2.95D-04 MaxDP=4.14D-03 DE=-2.93D-04 OVMax= 1.07D-02

 Cycle  20  Pass 1  IDiag  3:
 E= 0.956908686042652E-01 Delta-E=       -0.000130931958 Rises=F Damp=F
 DIIS: error= 2.99D-04 at cycle  20 NSaved=  20.
 NSaved=20 IEnMin=20 EnMin= 0.956908686042652E-01 IErMin=18 ErrMin= 2.54D-04
 ErrMax= 2.99D-04  0.00D+00 EMaxC= 1.00D-01 BMatC= 5.37D-06 BMatP= 6.86D-06
 IDIUse=3 WtCom= 9.97D-01 WtEn= 2.54D-03
 Coeff-Com: -0.445D-03 0.189D-03-0.661D-03-0.472D-03 0.135D-01-0.179D-01
 Coeff-Com: -0.298D-01 0.256D+00-0.255D+00-0.797D-01 0.285D+00-0.173D+00
 Coeff-Com:  0.115D+00-0.308D+00-0.220D+00 0.680D+00-0.183D-02-0.769D+00
 Coeff-Com: -0.195D+00 0.170D+01
 Coeff-En:   0.000D+00 0.000D+00 0.000D+00 0.000D+00 0.000D+00 0.000D+00
 Coeff-En:   0.000D+00 0.000D+00 0.000D+00 0.000D+00 0.000D+00 0.000D+00
 Coeff-En:   0.000D+00 0.000D+00 0.000D+00 0.000D+00 0.000D+00 0.000D+00
 Coeff-En:   0.000D+00 0.100D+01
 Coeff:     -0.444D-03 0.188D-03-0.659D-03-0.471D-03 0.134D-01-0.178D-01
 Coeff:     -0.298D-01 0.255D+00-0.254D+00-0.795D-01 0.285D+00-0.173D+00
 Coeff:      0.115D+00-0.307D+00-0.220D+00 0.678D+00-0.182D-02-0.767D+00
 Coeff:     -0.194D+00 0.170D+01
 Gap=     0.098 Goal=   None    Shift=    0.000
 RMSDP=5.72D-04 MaxDP=5.04D-03 DE=-1.31D-04 OVMax= 1.67D-02

 Cycle  21  Pass 1  IDiag  3:
 E= 0.956166324291416E-01 Delta-E=       -0.000074236175 Rises=F Damp=F
 DIIS: error= 3.60D-04 at cycle  21 NSaved=  20.
 NSaved=20 IEnMin=20 EnMin= 0.956166324291416E-01 IErMin=17 ErrMin= 2.54D-04
 ErrMax= 3.60D-04  0.00D+00 EMaxC= 1.00D-01 BMatC= 9.00D-06 BMatP= 5.37D-06
 IDIUse=3 WtCom= 9.97D-01 WtEn= 2.54D-03
 Coeff-Com:  0.481D-04-0.583D-03 0.239D-03 0.505D-02-0.112D-01-0.474D-03
 Coeff-Com:  0.810D-01-0.901D-01-0.208D-02 0.596D-01-0.905D-01 0.611D-01
 Coeff-Com:  0.459D-01-0.132D+00 0.264D-01-0.171D+00 0.387D+00-0.497D+00
 Coeff-Com: -0.265D+00 0.159D+01
 Coeff-En:   0.000D+00 0.000D+00 0.000D+00 0.000D+00 0.000D+00 0.000D+00
 Coeff-En:   0.000D+00 0.000D+00 0.000D+00 0.000D+00 0.000D+00 0.000D+00
 Coeff-En:   0.000D+00 0.000D+00 0.000D+00 0.000D+00 0.000D+00 0.000D+00
 Coeff-En:   0.000D+00 0.100D+01
 Coeff:      0.480D-04-0.581D-03 0.238D-03 0.504D-02-0.111D-01-0.473D-03
 Coeff:      0.808D-01-0.899D-01-0.207D-02 0.594D-01-0.903D-01 0.609D-01
 Coeff:      0.458D-01-0.132D+00 0.263D-01-0.171D+00 0.386D+00-0.496D+00
 Coeff:     -0.265D+00 0.159D+01
 Gap=     0.098 Goal=   None    Shift=    0.000
 RMSDP=2.81D-04 MaxDP=3.03D-03 DE=-7.42D-05 OVMax= 9.71D-03

 Cycle  22  Pass 1  IDiag  3:
 E= 0.955623863670780E-01 Delta-E=       -0.000054246062 Rises=F Damp=F
 DIIS: error= 2.29D-04 at cycle  22 NSaved=  20.
 NSaved=20 IEnMin=20 EnMin= 0.955623863670780E-01 IErMin=20 ErrMin= 2.29D-04
 ErrMax= 2.29D-04  0.00D+00 EMaxC= 1.00D-01 BMatC= 3.73D-06 BMatP= 5.37D-06
 IDIUse=3 WtCom= 9.98D-01 WtEn= 2.29D-03
 Coeff-Com: -0.114D-03 0.273D-03 0.195D-02-0.146D-02-0.207D-02 0.114D-01
 Coeff-Com: -0.168D-01 0.586D-02-0.365D-01 0.776D-01-0.649D-01 0.803D-01
 Coeff-Com: -0.370D-01-0.142D+00-0.114D+00 0.451D+00 0.752D-01-0.631D+00
 Coeff-Com: -0.873D+00 0.222D+01
 Coeff-En:   0.000D+00 0.000D+00 0.000D+00 0.000D+00 0.000D+00 0.000D+00
 Coeff-En:   0.000D+00 0.000D+00 0.000D+00 0.000D+00 0.000D+00 0.000D+00
 Coeff-En:   0.000D+00 0.000D+00 0.000D+00 0.000D+00 0.000D+00 0.000D+00
 Coeff-En:   0.000D+00 0.100D+01
 Coeff:     -0.114D-03 0.272D-03 0.194D-02-0.145D-02-0.206D-02 0.114D-01
 Coeff:     -0.167D-01 0.585D-02-0.365D-01 0.774D-01-0.648D-01 0.801D-01
 Coeff:     -0.369D-01-0.142D+00-0.114D+00 0.450D+00 0.750D-01-0.630D+00
 Coeff:     -0.871D+00 0.221D+01
 Gap=     0.099 Goal=   None    Shift=    0.000
 RMSDP=3.79D-04 MaxDP=4.03D-03 DE=-5.42D-05 OVMax= 1.25D-02

 Cycle  23  Pass 1  IDiag  3:
 E= 0.955249197453441E-01 Delta-E=       -0.000037466622 Rises=F Damp=F
 DIIS: error= 1.67D-04 at cycle  23 NSaved=  20.
 NSaved=20 IEnMin=20 EnMin= 0.955249197453441E-01 IErMin=20 ErrMin= 1.67D-04
 ErrMax= 1.67D-04  0.00D+00 EMaxC= 1.00D-01 BMatC= 2.17D-06 BMatP= 3.73D-06
 IDIUse=3 WtCom= 9.98D-01 WtEn= 1.67D-03
 Coeff-Com:  0.116D-04 0.251D-02-0.444D-02-0.742D-02 0.229D-01-0.632D-02
 Coeff-Com: -0.172D-01 0.140D-01-0.107D-01 0.500D-01-0.719D-01-0.605D-01
 Coeff-Com:  0.113D+00-0.482D-01-0.111D-01-0.927D-01 0.342D+00-0.458D+00
 Coeff-Com: -0.167D+00 0.141D+01
 Coeff-En:   0.000D+00 0.000D+00 0.000D+00 0.000D+00 0.000D+00 0.000D+00
 Coeff-En:   0.000D+00 0.000D+00 0.000D+00 0.000D+00 0.000D+00 0.000D+00
 Coeff-En:   0.000D+00 0.000D+00 0.000D+00 0.000D+00 0.000D+00 0.000D+00
 Coeff-En:   0.000D+00 0.100D+01
 Coeff:      0.116D-04 0.251D-02-0.443D-02-0.740D-02 0.229D-01-0.631D-02
 Coeff:     -0.172D-01 0.140D-01-0.107D-01 0.500D-01-0.718D-01-0.604D-01
 Coeff:      0.113D+00-0.481D-01-0.111D-01-0.926D-01 0.341D+00-0.457D+00
 Coeff:     -0.167D+00 0.141D+01
 Gap=     0.099 Goal=   None    Shift=    0.000
 RMSDP=1.77D-04 MaxDP=2.05D-03 DE=-3.75D-05 OVMax= 5.47D-03

 Cycle  24  Pass 1  IDiag  3:
 E= 0.955085700808240E-01 Delta-E=       -0.000016349665 Rises=F Damp=F
 DIIS: error= 7.33D-05 at cycle  24 NSaved=  20.
 NSaved=20 IEnMin=20 EnMin= 0.955085700808240E-01 IErMin=20 ErrMin= 7.33D-05
 ErrMax= 7.33D-05  0.00D+00 EMaxC= 1.00D-01 BMatC= 5.48D-07 BMatP= 2.17D-06
 IDIUse=1 WtCom= 1.00D+00 WtEn= 0.00D+00
 Coeff-Com:  0.671D-03-0.880D-03 0.351D-02 0.482D-02-0.112D-01 0.194D-01
 Coeff-Com: -0.640D-01 0.848D-01-0.536D-02-0.404D-01-0.266D-01 0.412D-01
 Coeff-Com:  0.242D-01-0.415D-01-0.355D-01 0.644D-01 0.121D+00-0.378D+00
 Coeff-Com: -0.572D+00 0.181D+01
 Coeff:      0.671D-03-0.880D-03 0.351D-02 0.482D-02-0.112D-01 0.194D-01
 Coeff:     -0.640D-01 0.848D-01-0.536D-02-0.404D-01-0.266D-01 0.412D-01
 Coeff:      0.242D-01-0.415D-01-0.355D-01 0.644D-01 0.121D+00-0.378D+00
 Coeff:     -0.572D+00 0.181D+01
 Gap=     0.099 Goal=   None    Shift=    0.000
 RMSDP=1.68D-04 MaxDP=1.88D-03 DE=-1.63D-05 OVMax= 4.35D-03

 Cycle  25  Pass 1  IDiag  3:
 E= 0.955018274217991E-01 Delta-E=       -0.000006742659 Rises=F Damp=F
 DIIS: error= 8.11D-05 at cycle  25 NSaved=  20.
 NSaved=20 IEnMin=20 EnMin= 0.955018274217991E-01 IErMin=19 ErrMin= 7.33D-05
 ErrMax= 8.11D-05  0.00D+00 EMaxC= 1.00D-01 BMatC= 5.35D-07 BMatP= 5.48D-07
 IDIUse=1 WtCom= 1.00D+00 WtEn= 0.00D+00
 Coeff-Com:  0.180D-02-0.941D-02-0.252D-02 0.156D-01 0.159D-02 0.106D-01
 Coeff-Com: -0.455D-01 0.362D-01-0.310D-01-0.407D-01 0.975D-01-0.497D-01
 Coeff-Com:  0.179D-01-0.806D-02 0.413D-01-0.867D-02-0.856D-01-0.352D+00
 Coeff-Com: -0.220D-01 0.143D+01
 Coeff:      0.180D-02-0.941D-02-0.252D-02 0.156D-01 0.159D-02 0.106D-01
 Coeff:     -0.455D-01 0.362D-01-0.310D-01-0.407D-01 0.975D-01-0.497D-01
 Coeff:      0.179D-01-0.806D-02 0.413D-01-0.867D-02-0.856D-01-0.352D+00
 Coeff:     -0.220D-01 0.143D+01
 Gap=     0.100 Goal=   None    Shift=    0.000
 RMSDP=1.26D-04 MaxDP=1.45D-03 DE=-6.74D-06 OVMax= 3.47D-03

 Cycle  26  Pass 1  IDiag  3:
 E= 0.954975487123875E-01 Delta-E=       -0.000004278709 Rises=F Damp=F
 DIIS: error= 3.50D-05 at cycle  26 NSaved=  20.
 NSaved=20 IEnMin=20 EnMin= 0.954975487123875E-01 IErMin=20 ErrMin= 3.50D-05
 ErrMax= 3.50D-05  0.00D+00 EMaxC= 1.00D-01 BMatC= 1.39D-07 BMatP= 5.35D-07
 IDIUse=1 WtCom= 1.00D+00 WtEn= 0.00D+00
 Coeff-Com:  0.262D-02-0.424D-02 0.259D-02 0.839D-02-0.273D-01 0.239D-01
 Coeff-Com:  0.123D-02 0.188D-01-0.175D-01-0.985D-02 0.140D-01-0.216D-01
 Coeff-Com: -0.634D-01 0.126D+00-0.284D-01 0.868D-01-0.420D-01-0.389D+00
 Coeff-Com: -0.253D+00 0.157D+01
 Coeff:      0.262D-02-0.424D-02 0.259D-02 0.839D-02-0.273D-01 0.239D-01
 Coeff:      0.123D-02 0.188D-01-0.175D-01-0.985D-02 0.140D-01-0.216D-01
 Coeff:     -0.634D-01 0.126D+00-0.284D-01 0.868D-01-0.420D-01-0.389D+00
 Coeff:     -0.253D+00 0.157D+01
 Gap=     0.099 Goal=   None    Shift=    0.000
 RMSDP=5.41D-05 MaxDP=7.27D-04 DE=-4.28D-06 OVMax= 1.13D-03

 Cycle  27  Pass 1  IDiag  3:
 E= 0.954965559476477E-01 Delta-E=       -0.000000992765 Rises=F Damp=F
 DIIS: error= 2.87D-05 at cycle  27 NSaved=  20.
 NSaved=20 IEnMin=20 EnMin= 0.954965559476477E-01 IErMin=20 ErrMin= 2.87D-05
 ErrMax= 2.87D-05  0.00D+00 EMaxC= 1.00D-01 BMatC= 6.28D-08 BMatP= 1.39D-07
 IDIUse=1 WtCom= 1.00D+00 WtEn= 0.00D+00
 Coeff-Com: -0.112D-01 0.172D-01-0.346D-03-0.752D-02-0.957D-02 0.914D-02
 Coeff-Com:  0.394D-02-0.788D-02 0.131D-01-0.683D-02-0.270D-01 0.300D-01
 Coeff-Com: -0.182D-01 0.597D-01-0.565D-01-0.484D-01 0.371D+00-0.842D+00
 Coeff-Com:  0.250D+00 0.128D+01
 Coeff:     -0.112D-01 0.172D-01-0.346D-03-0.752D-02-0.957D-02 0.914D-02
 Coeff:      0.394D-02-0.788D-02 0.131D-01-0.683D-02-0.270D-01 0.300D-01
 Coeff:     -0.182D-01 0.597D-01-0.565D-01-0.484D-01 0.371D+00-0.842D+00
 Coeff:      0.250D+00 0.128D+01
 Gap=     0.100 Goal=   None    Shift=    0.000
 RMSDP=6.16D-05 MaxDP=6.37D-04 DE=-9.93D-07 OVMax= 1.92D-03

 Cycle  28  Pass 1  IDiag  3:
 E= 0.954958192228332E-01 Delta-E=       -0.000000736725 Rises=F Damp=F
 DIIS: error= 1.84D-05 at cycle  28 NSaved=  20.
 NSaved=20 IEnMin=20 EnMin= 0.954958192228332E-01 IErMin=20 ErrMin= 1.84D-05
 ErrMax= 1.84D-05  0.00D+00 EMaxC= 1.00D-01 BMatC= 3.44D-08 BMatP= 6.28D-08
 IDIUse=1 WtCom= 1.00D+00 WtEn= 0.00D+00
 Coeff-Com: -0.737D-03 0.532D-02-0.107D-01 0.142D-01-0.511D-02-0.407D-02
 Coeff-Com: -0.502D-02 0.173D-01-0.234D-02-0.197D-01-0.212D-01 0.487D-01
 Coeff-Com: -0.133D-01-0.169D-01-0.134D-01 0.100D+00 0.379D-02-0.344D+00
 Coeff-Com: -0.753D-01 0.134D+01
 Coeff:     -0.737D-03 0.532D-02-0.107D-01 0.142D-01-0.511D-02-0.407D-02
 Coeff:     -0.502D-02 0.173D-01-0.234D-02-0.197D-01-0.212D-01 0.487D-01
 Coeff:     -0.133D-01-0.169D-01-0.134D-01 0.100D+00 0.379D-02-0.344D+00
 Coeff:     -0.753D-01 0.134D+01
 Gap=     0.100 Goal=   None    Shift=    0.000
 RMSDP=2.17D-05 MaxDP=2.72D-04 DE=-7.37D-07 OVMax= 5.82D-04

 Cycle  29  Pass 1  IDiag  3:
 E= 0.954956114711649E-01 Delta-E=       -0.000000207752 Rises=F Damp=F
 DIIS: error= 1.04D-05 at cycle  29 NSaved=  20.
 NSaved=20 IEnMin=20 EnMin= 0.954956114711649E-01 IErMin=20 ErrMin= 1.04D-05
 ErrMax= 1.04D-05  0.00D+00 EMaxC= 1.00D-01 BMatC= 9.83D-09 BMatP= 3.44D-08
 IDIUse=1 WtCom= 1.00D+00 WtEn= 0.00D+00
 Coeff-Com:  0.941D-03-0.411D-02 0.400D-02-0.223D-02 0.114D-01 0.272D-02
 Coeff-Com: -0.224D-01-0.226D-02 0.153D-01-0.782D-03-0.502D-03 0.685D-02
 Coeff-Com:  0.150D-03-0.141D-01-0.132D-01 0.418D-01 0.322D+00-0.741D+00
 Coeff-Com: -0.433D+00 0.183D+01
 Coeff:      0.941D-03-0.411D-02 0.400D-02-0.223D-02 0.114D-01 0.272D-02
 Coeff:     -0.224D-01-0.226D-02 0.153D-01-0.782D-03-0.502D-03 0.685D-02
 Coeff:      0.150D-03-0.141D-01-0.132D-01 0.418D-01 0.322D+00-0.741D+00
 Coeff:     -0.433D+00 0.183D+01
 Gap=     0.100 Goal=   None    Shift=    0.000
 RMSDP=2.45D-05 MaxDP=3.86D-04 DE=-2.08D-07 OVMax= 9.80D-04

 Cycle  30  Pass 1  IDiag  3:
 E= 0.954953315753073E-01 Delta-E=       -0.000000279896 Rises=F Damp=F
 DIIS: error= 8.45D-06 at cycle  30 NSaved=  20.
 NSaved=20 IEnMin=20 EnMin= 0.954953315753073E-01 IErMin=20 ErrMin= 8.45D-06
 ErrMax= 8.45D-06  0.00D+00 EMaxC= 1.00D-01 BMatC= 7.71D-09 BMatP= 9.83D-09
 IDIUse=1 WtCom= 1.00D+00 WtEn= 0.00D+00
 Coeff-Com: -0.226D-02 0.276D-02 0.330D-02-0.185D-02-0.309D-02 0.159D-02
 Coeff-Com: -0.127D-02-0.365D-02-0.703D-02 0.221D-01-0.136D-03-0.168D-01
 Coeff-Com: -0.626D-02 0.428D-01-0.907D-01 0.163D+00-0.123D-01-0.270D+00
 Coeff-Com: -0.318D+00 0.150D+01
 Coeff:     -0.226D-02 0.276D-02 0.330D-02-0.185D-02-0.309D-02 0.159D-02
 Coeff:     -0.127D-02-0.365D-02-0.703D-02 0.221D-01-0.136D-03-0.168D-01
 Coeff:     -0.626D-02 0.428D-01-0.907D-01 0.163D+00-0.123D-01-0.270D+00
 Coeff:     -0.318D+00 0.150D+01
 Gap=     0.100 Goal=   None    Shift=    0.000
 RMSDP=1.34D-05 MaxDP=1.83D-04 DE=-2.80D-07 OVMax= 4.50D-04

 Cycle  31  Pass 1  IDiag  3:
 E= 0.954951989309620E-01 Delta-E=       -0.000000132644 Rises=F Damp=F
 DIIS: error= 4.96D-06 at cycle  31 NSaved=  20.
 NSaved=20 IEnMin=20 EnMin= 0.954951989309620E-01 IErMin=20 ErrMin= 4.96D-06
 ErrMax= 4.96D-06  0.00D+00 EMaxC= 1.00D-01 BMatC= 3.11D-09 BMatP= 7.71D-09
 IDIUse=1 WtCom= 1.00D+00 WtEn= 0.00D+00
 Coeff-Com:  0.185D-02-0.136D-02-0.660D-03 0.249D-02-0.250D-02-0.904D-03
 Coeff-Com:  0.268D-02-0.272D-02 0.490D-02 0.237D-02-0.207D-01 0.123D-01
 Coeff-Com:  0.286D-02 0.473D-02-0.264D-01 0.372D-01 0.130D+00-0.209D+00
 Coeff-Com: -0.116D+01 0.222D+01
 Coeff:      0.185D-02-0.136D-02-0.660D-03 0.249D-02-0.250D-02-0.904D-03
 Coeff:      0.268D-02-0.272D-02 0.490D-02 0.237D-02-0.207D-01 0.123D-01
 Coeff:      0.286D-02 0.473D-02-0.264D-01 0.372D-01 0.130D+00-0.209D+00
 Coeff:     -0.116D+01 0.222D+01
 Gap=     0.100 Goal=   None    Shift=    0.000
 RMSDP=1.77D-05 MaxDP=2.50D-04 DE=-1.33D-07 OVMax= 5.90D-04

 Cycle  32  Pass 1  IDiag  3:
 E= 0.954950923331808E-01 Delta-E=       -0.000000106598 Rises=F Damp=F
 DIIS: error= 4.83D-06 at cycle  32 NSaved=  20.
 NSaved=20 IEnMin=20 EnMin= 0.954950923331808E-01 IErMin=20 ErrMin= 4.83D-06
 ErrMax= 4.83D-06  0.00D+00 EMaxC= 1.00D-01 BMatC= 2.29D-09 BMatP= 3.11D-09
 IDIUse=1 WtCom= 1.00D+00 WtEn= 0.00D+00
 Coeff-Com:  0.265D-03 0.245D-02-0.309D-03-0.397D-02-0.284D-04 0.728D-03
 Coeff-Com: -0.217D-02 0.105D-01 0.176D-02-0.188D-01 0.929D-02 0.146D-01
 Coeff-Com: -0.348D-01 0.640D-01-0.108D+00 0.111D-02 0.285D+00-0.492D+00
 Coeff-Com: -0.187D+00 0.146D+01
 Coeff:      0.265D-03 0.245D-02-0.309D-03-0.397D-02-0.284D-04 0.728D-03
 Coeff:     -0.217D-02 0.105D-01 0.176D-02-0.188D-01 0.929D-02 0.146D-01
 Coeff:     -0.348D-01 0.640D-01-0.108D+00 0.111D-02 0.285D+00-0.492D+00
 Coeff:     -0.187D+00 0.146D+01
 Gap=     0.100 Goal=   None    Shift=    0.000
 RMSDP=9.72D-06 MaxDP=1.27D-04 DE=-1.07D-07 OVMax= 3.06D-04

 Cycle  33  Pass 1  IDiag  3:
 E= 0.954950502845122E-01 Delta-E=       -0.000000042049 Rises=F Damp=F
 DIIS: error= 3.34D-06 at cycle  33 NSaved=  20.
 NSaved=20 IEnMin=20 EnMin= 0.954950502845122E-01 IErMin=20 ErrMin= 3.34D-06
 ErrMax= 3.34D-06  0.00D+00 EMaxC= 1.00D-01 BMatC= 1.02D-09 BMatP= 2.29D-09
 IDIUse=1 WtCom= 1.00D+00 WtEn= 0.00D+00
 Coeff-Com:  0.228D-03 0.146D-02-0.225D-02-0.773D-03 0.199D-02-0.296D-02
 Coeff-Com:  0.574D-02 0.913D-03-0.852D-02 0.483D-02-0.123D-02-0.116D-02
 Coeff-Com:  0.207D-01-0.656D-01 0.171D-01 0.710D-01 0.273D-01-0.152D+00
 Coeff-Com: -0.882D+00 0.196D+01
 Coeff:      0.228D-03 0.146D-02-0.225D-02-0.773D-03 0.199D-02-0.296D-02
 Coeff:      0.574D-02 0.913D-03-0.852D-02 0.483D-02-0.123D-02-0.116D-02
 Coeff:      0.207D-01-0.656D-01 0.171D-01 0.710D-01 0.273D-01-0.152D+00
 Coeff:     -0.882D+00 0.196D+01
 Gap=     0.100 Goal=   None    Shift=    0.000
 RMSDP=1.06D-05 MaxDP=1.52D-04 DE=-4.20D-08 OVMax= 3.78D-04

 Cycle  34  Pass 1  IDiag  3:
 E= 0.954950231733847E-01 Delta-E=       -0.000000027111 Rises=F Damp=F
 DIIS: error= 2.35D-06 at cycle  34 NSaved=  20.
 NSaved=20 IEnMin=20 EnMin= 0.954950231733847E-01 IErMin=20 ErrMin= 2.35D-06
 ErrMax= 2.35D-06  0.00D+00 EMaxC= 1.00D-01 BMatC= 5.40D-10 BMatP= 1.02D-09
 IDIUse=1 WtCom= 1.00D+00 WtEn= 0.00D+00
 Coeff-Com:  0.938D-03-0.857D-03-0.614D-03 0.396D-03-0.646D-03 0.305D-02
 Coeff-Com:  0.471D-03-0.836D-02 0.441D-02 0.339D-02 0.629D-02-0.853D-02
 Coeff-Com: -0.508D-02-0.775D-02 0.722D-01-0.223D+00 0.408D+00-0.561D+00
 Coeff-Com: -0.817D-01 0.140D+01
 Coeff:      0.938D-03-0.857D-03-0.614D-03 0.396D-03-0.646D-03 0.305D-02
 Coeff:      0.471D-03-0.836D-02 0.441D-02 0.339D-02 0.629D-02-0.853D-02
 Coeff:     -0.508D-02-0.775D-02 0.722D-01-0.223D+00 0.408D+00-0.561D+00
 Coeff:     -0.817D-01 0.140D+01
 Gap=     0.100 Goal=   None    Shift=    0.000
 RMSDP=4.49D-06 MaxDP=4.80D-05 DE=-2.71D-08 OVMax= 1.25D-04

 Cycle  35  Pass 1  IDiag  1:
 E= 0.954950149266551E-01 Delta-E=       -0.000000008247 Rises=F Damp=F
 DIIS: error= 1.02D-06 at cycle  35 NSaved=  20.
 NSaved=20 IEnMin=20 EnMin= 0.954950149266551E-01 IErMin=20 ErrMin= 1.02D-06
 ErrMax= 1.02D-06  0.00D+00 EMaxC= 1.00D-01 BMatC= 1.23D-10 BMatP= 5.40D-10
 IDIUse=1 WtCom= 1.00D+00 WtEn= 0.00D+00
 Coeff-Com:  0.879D-04 0.240D-03-0.969D-03-0.222D-03 0.144D-02 0.129D-02
 Coeff-Com: -0.178D-02 0.558D-03-0.158D-02 0.244D-02 0.186D-02 0.274D-02
 Coeff-Com: -0.734D-02-0.122D-01 0.426D-01-0.361D-01 0.185D+00-0.385D+00
 Coeff-Com: -0.563D+00 0.177D+01
 Coeff:      0.879D-04 0.240D-03-0.969D-03-0.222D-03 0.144D-02 0.129D-02
 Coeff:     -0.178D-02 0.558D-03-0.158D-02 0.244D-02 0.186D-02 0.274D-02
 Coeff:     -0.734D-02-0.122D-01 0.426D-01-0.361D-01 0.185D+00-0.385D+00
 Coeff:     -0.563D+00 0.177D+01
 RMSDP=4.56D-06 MaxDP=4.96D-05 DE=-8.25D-09 OVMax= 1.25D-04

 Cycle  36  Pass 1  IDiag  3:
 E= 0.954950103994179E-01 Delta-E=       -0.000000004527 Rises=F Damp=F
 DIIS: error= 5.34D-07 at cycle  36 NSaved=  20.
 NSaved=20 IEnMin=20 EnMin= 0.954950103994179E-01 IErMin=20 ErrMin= 5.34D-07
 ErrMax= 5.34D-07  0.00D+00 EMaxC= 1.00D-01 BMatC= 2.97D-11 BMatP= 1.23D-10
 IDIUse=1 WtCom= 1.00D+00 WtEn= 0.00D+00
 Coeff-Com:  0.568D-03-0.114D-02-0.357D-03 0.187D-02-0.100D-02 0.384D-03
 Coeff-Com:  0.553D-03-0.172D-02 0.557D-03-0.118D-02-0.541D-02 0.513D-02
 Coeff-Com:  0.124D-02-0.312D-01 0.529D-01-0.526D-01 0.140D+00 0.191D+00
 Coeff-Com: -0.101D+01 0.171D+01
 Coeff:      0.568D-03-0.114D-02-0.357D-03 0.187D-02-0.100D-02 0.384D-03
 Coeff:      0.553D-03-0.172D-02 0.557D-03-0.118D-02-0.541D-02 0.513D-02
 Coeff:      0.124D-02-0.312D-01 0.529D-01-0.526D-01 0.140D+00 0.191D+00
 Coeff:     -0.101D+01 0.171D+01
 Gap=     0.087 Goal=   None    Shift=    0.000
 RMSDP=1.61D-06 MaxDP=1.80D-05 DE=-4.53D-09 OVMax= 6.68D-05

 Cycle  37  Pass 1  IDiag  3:
 E= 0.954950093722573E-01 Delta-E=       -0.000000001027 Rises=F Damp=F
 DIIS: error= 3.25D-07 at cycle  37 NSaved=  20.
 NSaved=20 IEnMin=20 EnMin= 0.954950093722573E-01 IErMin=20 ErrMin= 3.25D-07
 ErrMax= 3.25D-07  0.00D+00 EMaxC= 1.00D-01 BMatC= 1.15D-11 BMatP= 2.97D-11
 IDIUse=1 WtCom= 1.00D+00 WtEn= 0.00D+00
 Coeff-Com:  0.237D-03 0.132D-03-0.649D-03 0.242D-03-0.750D-03 0.683D-03
 Coeff-Com:  0.635D-03-0.110D-02 0.205D-02 0.304D-02-0.108D-01 0.141D-01
 Coeff-Com: -0.399D-02-0.927D-02 0.927D-03-0.232D-01-0.118D-01 0.177D+00
 Coeff-Com: -0.723D+00 0.158D+01
 Coeff:      0.237D-03 0.132D-03-0.649D-03 0.242D-03-0.750D-03 0.683D-03
 Coeff:      0.635D-03-0.110D-02 0.205D-02 0.304D-02-0.108D-01 0.141D-01
 Coeff:     -0.399D-02-0.927D-02 0.927D-03-0.232D-01-0.118D-01 0.177D+00
 Coeff:     -0.723D+00 0.158D+01
 Gap=     0.087 Goal=   None    Shift=    0.000
 RMSDP=8.64D-07 MaxDP=1.01D-05 DE=-1.03D-09 OVMax= 2.82D-05

 Cycle  38  Pass 1  IDiag  3:
 E= 0.954950089825388E-01 Delta-E=       -0.000000000390 Rises=F Damp=F
 DIIS: error= 2.30D-07 at cycle  38 NSaved=  20.
 NSaved=20 IEnMin=20 EnMin= 0.954950089825388E-01 IErMin=20 ErrMin= 2.30D-07
 ErrMax= 2.30D-07  0.00D+00 EMaxC= 1.00D-01 BMatC= 5.28D-12 BMatP= 1.15D-11
 IDIUse=1 WtCom= 1.00D+00 WtEn= 0.00D+00
 Coeff-Com: -0.948D-04 0.323D-03-0.213D-03-0.295D-03-0.110D-03 0.534D-03
 Coeff-Com:  0.106D-03 0.944D-03-0.234D-02 0.146D-03 0.151D-02 0.337D-03
 Coeff-Com: -0.205D-02 0.896D-02-0.284D-01-0.174D-01 0.935D-01-0.982D-01
 Coeff-Com: -0.815D+00 0.186D+01
 Coeff:     -0.948D-04 0.323D-03-0.213D-03-0.295D-03-0.110D-03 0.534D-03
 Coeff:      0.106D-03 0.944D-03-0.234D-02 0.146D-03 0.151D-02 0.337D-03
 Coeff:     -0.205D-02 0.896D-02-0.284D-01-0.174D-01 0.935D-01-0.982D-01
 Coeff:     -0.815D+00 0.186D+01
 Gap=     0.087 Goal=   None    Shift=    0.000
 RMSDP=9.03D-07 MaxDP=1.04D-05 DE=-3.90D-10 OVMax= 3.07D-05

 Cycle  39  Pass 1  IDiag  3:
 E= 0.954950087322004E-01 Delta-E=       -0.000000000250 Rises=F Damp=F
 DIIS: error= 1.55D-07 at cycle  39 NSaved=  20.
 NSaved=20 IEnMin=20 EnMin= 0.954950087322004E-01 IErMin=20 ErrMin= 1.55D-07
 ErrMax= 1.55D-07  0.00D+00 EMaxC= 1.00D-01 BMatC= 2.07D-12 BMatP= 5.28D-12
 IDIUse=1 WtCom= 1.00D+00 WtEn= 0.00D+00
 Coeff-Com:  0.162D-04 0.207D-03-0.857D-04 0.229D-04-0.268D-03 0.645D-03
 Coeff-Com: -0.811D-03 0.493D-03-0.374D-03 0.225D-04-0.238D-02 0.626D-02
 Coeff-Com: -0.705D-02 0.484D-02 0.764D-02-0.210D-01 0.748D-01-0.102D-01
 Coeff-Com: -0.611D+00 0.156D+01
 Coeff:      0.162D-04 0.207D-03-0.857D-04 0.229D-04-0.268D-03 0.645D-03
 Coeff:     -0.811D-03 0.493D-03-0.374D-03 0.225D-04-0.238D-02 0.626D-02
 Coeff:     -0.705D-02 0.484D-02 0.764D-02-0.210D-01 0.748D-01-0.102D-01
 Coeff:     -0.611D+00 0.156D+01
 Gap=     0.087 Goal=   None    Shift=    0.000
 RMSDP=5.26D-07 MaxDP=6.79D-06 DE=-2.50D-10 OVMax= 1.61D-05

 Cycle  40  Pass 1  IDiag  3:
 E= 0.954950086501185E-01 Delta-E=       -0.000000000082 Rises=F Damp=F
 DIIS: error= 8.83D-08 at cycle  40 NSaved=  20.
 NSaved=20 IEnMin=20 EnMin= 0.954950086501185E-01 IErMin=20 ErrMin= 8.83D-08
 ErrMax= 8.83D-08  0.00D+00 EMaxC= 1.00D-01 BMatC= 8.36D-13 BMatP= 2.07D-12
 IDIUse=1 WtCom= 1.00D+00 WtEn= 0.00D+00
 Coeff-Com: -0.952D-04 0.155D-03 0.751D-05-0.724D-03 0.120D-02-0.610D-03
 Coeff-Com: -0.115D-03 0.145D-02-0.144D-02-0.399D-02 0.860D-02-0.494D-02
 Coeff-Com: -0.248D-02 0.338D-02-0.503D-02 0.149D-01 0.816D-01-0.185D+00
 Coeff-Com: -0.558D+00 0.165D+01
 Coeff:     -0.952D-04 0.155D-03 0.751D-05-0.724D-03 0.120D-02-0.610D-03
 Coeff:     -0.115D-03 0.145D-02-0.144D-02-0.399D-02 0.860D-02-0.494D-02
 Coeff:     -0.248D-02 0.338D-02-0.503D-02 0.149D-01 0.816D-01-0.185D+00
 Coeff:     -0.558D+00 0.165D+01
 Gap=     0.087 Goal=   None    Shift=    0.000
 RMSDP=3.73D-07 MaxDP=4.92D-06 DE=-8.21D-11 OVMax= 1.18D-05

 Cycle  41  Pass 1  IDiag  3:
 E= 0.954950086127155E-01 Delta-E=       -0.000000000037 Rises=F Damp=F
 DIIS: error= 5.04D-08 at cycle  41 NSaved=  20.
 NSaved=20 IEnMin=20 EnMin= 0.954950086127155E-01 IErMin=20 ErrMin= 5.04D-08
 ErrMax= 5.04D-08  0.00D+00 EMaxC= 1.00D-01 BMatC= 3.20D-13 BMatP= 8.36D-13
 IDIUse=1 WtCom= 1.00D+00 WtEn= 0.00D+00
 Coeff-Com: -0.144D-03 0.144D-03-0.921D-04 0.263D-03-0.458D-03 0.365D-03
 Coeff-Com:  0.251D-04-0.554D-03 0.462D-03 0.146D-03-0.146D-02 0.219D-02
 Coeff-Com:  0.249D-02-0.141D-01 0.152D-01-0.950D-02 0.960D-01-0.154D+00
 Coeff-Com: -0.528D+00 0.159D+01
 Coeff:     -0.144D-03 0.144D-03-0.921D-04 0.263D-03-0.458D-03 0.365D-03
 Coeff:      0.251D-04-0.554D-03 0.462D-03 0.146D-03-0.146D-02 0.219D-02
 Coeff:      0.249D-02-0.141D-01 0.152D-01-0.950D-02 0.960D-01-0.154D+00
 Coeff:     -0.528D+00 0.159D+01
 Gap=     0.087 Goal=   None    Shift=    0.000
 RMSDP=2.14D-07 MaxDP=2.67D-06 DE=-3.74D-11 OVMax= 6.61D-06

 Cycle  42  Pass 1  IDiag  3:
 E= 0.954950085990731E-01 Delta-E=       -0.000000000014 Rises=F Damp=F
 DIIS: error= 3.30D-08 at cycle  42 NSaved=  20.
 NSaved=20 IEnMin=20 EnMin= 0.954950085990731E-01 IErMin=20 ErrMin= 3.30D-08
 ErrMax= 3.30D-08  0.00D+00 EMaxC= 1.00D-01 BMatC= 1.09D-13 BMatP= 3.20D-13
 IDIUse=1 WtCom= 1.00D+00 WtEn= 0.00D+00
 Coeff-Com: -0.296D-04-0.107D-03 0.295D-03-0.561D-04-0.780D-04-0.874D-04
 Coeff-Com:  0.229D-03-0.948D-03 0.112D-02 0.693D-03-0.277D-02-0.795D-03
 Coeff-Com:  0.556D-02-0.988D-02-0.172D-02 0.266D-01 0.516D-01-0.104D+00
 Coeff-Com: -0.572D+00 0.161D+01
 Coeff:     -0.296D-04-0.107D-03 0.295D-03-0.561D-04-0.780D-04-0.874D-04
 Coeff:      0.229D-03-0.948D-03 0.112D-02 0.693D-03-0.277D-02-0.795D-03
 Coeff:      0.556D-02-0.988D-02-0.172D-02 0.266D-01 0.516D-01-0.104D+00
 Coeff:     -0.572D+00 0.161D+01
 Gap=     0.087 Goal=   None    Shift=    0.000
 RMSDP=1.28D-07 MaxDP=1.61D-06 DE=-1.36D-11 OVMax= 3.93D-06

 Cycle  43  Pass 1  IDiag  3:
 E= 0.954950085950941E-01 Delta-E=       -0.000000000004 Rises=F Damp=F
 DIIS: error= 1.68D-08 at cycle  43 NSaved=  20.
 NSaved=20 IEnMin=20 EnMin= 0.954950085950941E-01 IErMin=20 ErrMin= 1.68D-08
 ErrMax= 1.68D-08  0.00D+00 EMaxC= 1.00D-01 BMatC= 3.43D-14 BMatP= 1.09D-13
 IDIUse=1 WtCom= 1.00D+00 WtEn= 0.00D+00
 Large coefficients: NSaved= 20 BigCof=    0.00 CofMax=   10.00 Det=-9.31D-15
 Inversion failed.  Reducing to 19 matrices.
 Large coefficients: NSaved= 19 BigCof=    0.00 CofMax=   10.00 Det=-9.34D-15
 Inversion failed.  Reducing to 18 matrices.
 Large coefficients: NSaved= 18 BigCof=    0.00 CofMax=   10.00 Det=-9.36D-15
 Inversion failed.  Reducing to 17 matrices.
 Large coefficients: NSaved= 17 BigCof=    0.00 CofMax=   10.00 Det=-9.37D-15
 Inversion failed.  Reducing to 16 matrices.
 Large coefficients: NSaved= 16 BigCof=    0.00 CofMax=   10.00 Det=-9.51D-15
 Inversion failed.  Reducing to 15 matrices.
 Coeff-Com: -0.195D-03-0.268D-03 0.904D-03-0.561D-03-0.467D-03 0.775D-03
 Coeff-Com:  0.149D-03-0.595D-03-0.146D-01 0.238D-01 0.364D-02 0.357D-01
 Coeff-Com: -0.888D-01-0.506D+00 0.155D+01
 Coeff:     -0.195D-03-0.268D-03 0.904D-03-0.561D-03-0.467D-03 0.775D-03
 Coeff:      0.149D-03-0.595D-03-0.146D-01 0.238D-01 0.364D-02 0.357D-01
 Coeff:     -0.888D-01-0.506D+00 0.155D+01
 Gap=     0.087 Goal=   None    Shift=    0.000
 RMSDP=7.12D-08 MaxDP=1.00D-06 DE=-3.98D-12 OVMax= 2.22D-06

 Cycle  44  Pass 1  IDiag  3:
 E= 0.954950085937298E-01 Delta-E=       -0.000000000001 Rises=F Damp=F
 DIIS: error= 1.07D-08 at cycle  44 NSaved=  16.
 NSaved=16 IEnMin=16 EnMin= 0.954950085937298E-01 IErMin=16 ErrMin= 1.07D-08
 ErrMax= 1.07D-08  0.00D+00 EMaxC= 1.00D-01 BMatC= 1.12D-14 BMatP= 3.43D-14
 IDIUse=1 WtCom= 1.00D+00 WtEn= 0.00D+00
 Large coefficients: NSaved= 16 BigCof=    0.00 CofMax=   10.00 Det=-3.19D-15
 Inversion failed.  Reducing to 15 matrices.
 Coeff-Com: -0.170D-03 0.412D-03-0.212D-03-0.244D-03 0.554D-03-0.444D-04
 Coeff-Com: -0.996D-03 0.352D-05 0.152D-02 0.273D-02 0.111D-03 0.514D-01
 Coeff-Com: -0.918D-01-0.437D+00 0.147D+01
 Coeff:     -0.170D-03 0.412D-03-0.212D-03-0.244D-03 0.554D-03-0.444D-04
 Coeff:     -0.996D-03 0.352D-05 0.152D-02 0.273D-02 0.111D-03 0.514D-01
 Coeff:     -0.918D-01-0.437D+00 0.147D+01
 Gap=     0.087 Goal=   None    Shift=    0.000
 RMSDP=2.96D-08 MaxDP=4.01D-07 DE=-1.36D-12 OVMax= 1.03D-06

 Cycle  45  Pass 1  IDiag  3:
 E= 0.954950085941846E-01 Delta-E=        0.000000000000 Rises=F Damp=F
 DIIS: error= 8.49D-09 at cycle  45 NSaved=  16.
 NSaved=16 IEnMin=15 EnMin= 0.954950085937298E-01 IErMin=16 ErrMin= 8.49D-09
 ErrMax= 8.49D-09  0.00D+00 EMaxC= 1.00D-01 BMatC= 4.38D-15 BMatP= 1.12D-14
 IDIUse=1 WtCom= 1.00D+00 WtEn= 0.00D+00
 Large coefficients: NSaved= 16 BigCof=    0.00 CofMax=   10.00 Det=-1.07D-15
 Inversion failed.  Reducing to 15 matrices.
 Coeff-Com:  0.126D-03-0.244D-03 0.905D-04 0.407D-03-0.222D-03-0.489D-03
 Coeff-Com:  0.678D-03-0.287D-02 0.576D-02-0.495D-02 0.106D-02 0.521D-01
 Coeff-Com: -0.769D-01-0.557D+00 0.158D+01
 Coeff:      0.126D-03-0.244D-03 0.905D-04 0.407D-03-0.222D-03-0.489D-03
 Coeff:      0.678D-03-0.287D-02 0.576D-02-0.495D-02 0.106D-02 0.521D-01
 Coeff:     -0.769D-01-0.557D+00 0.158D+01
 Gap=     0.087 Goal=   None    Shift=    0.000
 RMSDP=1.74D-08 MaxDP=1.75D-07 DE= 4.55D-13 OVMax= 6.57D-07

 Cycle  46  Pass 1  IDiag  3:
 E= 0.954950085941846E-01 Delta-E=        0.000000000000 Rises=F Damp=F
 DIIS: error= 5.92D-09 at cycle  46 NSaved=  16.
 NSaved=16 IEnMin=14 EnMin= 0.954950085937298E-01 IErMin=16 ErrMin= 5.92D-09
 ErrMax= 5.92D-09  0.00D+00 EMaxC= 1.00D-01 BMatC= 2.06D-15 BMatP= 4.38D-15
 IDIUse=1 WtCom= 1.00D+00 WtEn= 0.00D+00
 Large coefficients: NSaved= 16 BigCof=    0.00 CofMax=   10.00 Det=-2.79D-16
 Inversion failed.  Reducing to 15 matrices.
 Coeff-Com: -0.447D-04 0.152D-03 0.137D-03-0.432D-03-0.206D-03 0.833D-03
 Coeff-Com: -0.323D-03 0.233D-02-0.828D-02 0.691D-02 0.627D-02 0.360D-01
 Coeff-Com: -0.364D-01-0.747D+00 0.174D+01
 Coeff:     -0.447D-04 0.152D-03 0.137D-03-0.432D-03-0.206D-03 0.833D-03
 Coeff:     -0.323D-03 0.233D-02-0.828D-02 0.691D-02 0.627D-02 0.360D-01
 Coeff:     -0.364D-01-0.747D+00 0.174D+01
 Gap=     0.087 Goal=   None    Shift=    0.000
 RMSDP=1.32D-08 MaxDP=1.38D-07 DE= 0.00D+00 OVMax= 4.59D-07

 Cycle  47  Pass 1  IDiag  3:
 E= 0.954950085932751E-01 Delta-E=       -0.000000000001 Rises=F Damp=F
 DIIS: error= 3.53D-09 at cycle  47 NSaved=  16.
 NSaved=16 IEnMin=16 EnMin= 0.954950085932751E-01 IErMin=16 ErrMin= 3.53D-09
 ErrMax= 3.53D-09  0.00D+00 EMaxC= 1.00D-01 BMatC= 9.07D-16 BMatP= 2.06D-15
 IDIUse=1 WtCom= 1.00D+00 WtEn= 0.00D+00
 Large coefficients: NSaved= 16 BigCof=    0.00 CofMax=   10.00 Det=-1.15D-16
 Inversion failed.  Reducing to 15 matrices.
 Coeff-Com:  0.599D-04-0.268D-04 0.223D-03-0.102D-02 0.176D-02-0.887D-03
 Coeff-Com:  0.176D-02-0.426D-02-0.101D-02 0.474D-02 0.144D-01 0.478D-01
 Coeff-Com: -0.535D-01-0.871D+00 0.186D+01
 Coeff:      0.599D-04-0.268D-04 0.223D-03-0.102D-02 0.176D-02-0.887D-03
 Coeff:      0.176D-02-0.426D-02-0.101D-02 0.474D-02 0.144D-01 0.478D-01
 Coeff:     -0.535D-01-0.871D+00 0.186D+01
 Gap=     0.087 Goal=   None    Shift=    0.000
 RMSDP=1.20D-08 MaxDP=1.26D-07 DE=-9.09D-13 OVMax= 3.61D-07

 Cycle  48  Pass 1  IDiag  3:
 E= 0.954950085932751E-01 Delta-E=        0.000000000000 Rises=F Damp=F
 DIIS: error= 1.68D-09 at cycle  48 NSaved=  16.
 NSaved=16 IEnMin=15 EnMin= 0.954950085932751E-01 IErMin=16 ErrMin= 1.68D-09
 ErrMax= 1.68D-09  0.00D+00 EMaxC= 1.00D-01 BMatC= 3.37D-16 BMatP= 9.07D-16
 IDIUse=1 WtCom= 1.00D+00 WtEn= 0.00D+00
 Large coefficients: NSaved= 16 BigCof=    0.00 CofMax=   10.00 Det=-5.35D-17
 Inversion failed.  Reducing to 15 matrices.
 Coeff-Com:  0.615D-04-0.167D-03-0.309D-04 0.111D-03-0.640D-04 0.416D-03
 Coeff-Com: -0.126D-03 0.138D-03-0.675D-02 0.803D-02-0.859D-02 0.123D+00
 Coeff-Com: -0.202D+00-0.472D+00 0.156D+01
 Coeff:      0.615D-04-0.167D-03-0.309D-04 0.111D-03-0.640D-04 0.416D-03
 Coeff:     -0.126D-03 0.138D-03-0.675D-02 0.803D-02-0.859D-02 0.123D+00
 Coeff:     -0.202D+00-0.472D+00 0.156D+01
 Gap=     0.087 Goal=   None    Shift=    0.000
 RMSDP=6.88D-09 MaxDP=7.09D-08 DE= 0.00D+00 OVMax= 2.09D-07

 Cycle  49  Pass 2  IDiag  1:
 SCF Done:  E(RPM6) =  0.954950085933E-01 A.U. after   49 cycles
            NFock= 48  Conv=0.69D-08     -V/T= 1.0006
 KE=-1.705280814232D+02 PE=-9.120712972834D+02 EE= 4.917290066210D+02
 Leave Link  502 at Wed Jan  5 15:22:32 2022, MaxMem=   402653184 cpu:             321.8 elap:              55.1
 (Enter /work/01114/jfonner/frontera/gaussian/16rC.01/g16/l601.exe)
 Copying SCF densities to generalized density rwf, IOpCl= 0 IROHF=0.

 **********************************************************************

            Population analysis using the SCF Density.

 **********************************************************************

 Alpha  occ. eigenvalues --   -1.78073  -1.76388  -1.74889  -1.67256  -1.66298
 Alpha  occ. eigenvalues --   -1.65708  -1.63607  -1.61693  -1.55419  -1.49916
 Alpha  occ. eigenvalues --   -1.46883  -1.41524  -1.37246  -1.31173  -1.27503
 Alpha  occ. eigenvalues --   -1.25396  -1.18988  -1.17715  -1.16323  -1.14944
 Alpha  occ. eigenvalues --   -1.13652  -1.13144  -1.12380  -1.10585  -1.08492
 Alpha  occ. eigenvalues --   -1.06885  -1.06735  -1.05331  -1.04084  -1.02836
 Alpha  occ. eigenvalues --   -1.01389  -0.99774  -0.97547  -0.95501  -0.93812
 Alpha  occ. eigenvalues --   -0.93390  -0.92328  -0.89811  -0.89515  -0.82936
 Alpha virt. eigenvalues --   -0.74193  -0.66993  -0.63440  -0.62895  -0.62400
 Alpha virt. eigenvalues --   -0.62191  -0.57700  -0.57683  -0.56756  -0.56349
 Alpha virt. eigenvalues --   -0.53203  -0.51341  -0.49809  -0.48718  -0.48486
 Alpha virt. eigenvalues --   -0.47778  -0.47645  -0.46776  -0.46244  -0.45615
 Alpha virt. eigenvalues --   -0.45143  -0.43969  -0.42940  -0.39451  -0.38431
 Alpha virt. eigenvalues --   -0.38335  -0.36876  -0.36567  -0.35842  -0.34604
 Alpha virt. eigenvalues --   -0.30120  -0.26098
          Condensed to atoms (all electrons):
               1          2          3          4          5          6
     1  C    3.532694   0.000000   0.000000   0.000000   0.000000   0.000000
     2  O    0.000000   5.948844   0.000000   0.000000   0.000000   0.000000
     3  N    0.000000   0.000000   5.053725   0.000000   0.000000   0.000000
     4  C    0.000000   0.000000   0.000000   3.723805   0.000000   0.000000
     5  C    0.000000   0.000000   0.000000   0.000000   3.614958   0.000000
     6  O    0.000000   0.000000   0.000000   0.000000   0.000000   6.164529
     7  N    0.000000   0.000000   0.000000   0.000000   0.000000   0.000000
     8  C    0.000000   0.000000   0.000000   0.000000   0.000000   0.000000
     9  C    0.000000   0.000000   0.000000   0.000000   0.000000   0.000000
    10  C    0.000000   0.000000   0.000000   0.000000   0.000000   0.000000
    11  C    0.000000   0.000000   0.000000   0.000000   0.000000   0.000000
    12  O    0.000000   0.000000   0.000000   0.000000   0.000000   0.000000
    13  N    0.000000   0.000000   0.000000   0.000000   0.000000   0.000000
    14  C    0.000000   0.000000   0.000000   0.000000   0.000000   0.000000
    15  C    0.000000   0.000000   0.000000   0.000000   0.000000   0.000000
    16  O    0.000000   0.000000   0.000000   0.000000   0.000000   0.000000
    17  C    0.000000   0.000000   0.000000   0.000000   0.000000   0.000000
    18  H    0.000000   0.000000   0.000000   0.000000   0.000000   0.000000
    19  H    0.000000   0.000000   0.000000   0.000000   0.000000   0.000000
    20  H    0.000000   0.000000   0.000000   0.000000   0.000000   0.000000
    21  H    0.000000   0.000000   0.000000   0.000000   0.000000   0.000000
               7          8          9         10         11         12
     1  C    0.000000   0.000000   0.000000   0.000000   0.000000   0.000000
     2  O    0.000000   0.000000   0.000000   0.000000   0.000000   0.000000
     3  N    0.000000   0.000000   0.000000   0.000000   0.000000   0.000000
     4  C    0.000000   0.000000   0.000000   0.000000   0.000000   0.000000
     5  C    0.000000   0.000000   0.000000   0.000000   0.000000   0.000000
     6  O    0.000000   0.000000   0.000000   0.000000   0.000000   0.000000
     7  N    5.380855   0.000000   0.000000   0.000000   0.000000   0.000000
     8  C    0.000000   3.700632   0.000000   0.000000   0.000000   0.000000
     9  C    0.000000   0.000000   4.434170   0.000000   0.000000   0.000000
    10  C    0.000000   0.000000   0.000000   2.928825   0.000000   0.000000
    11  C    0.000000   0.000000   0.000000   0.000000   3.656039   0.000000
    12  O    0.000000   0.000000   0.000000   0.000000   0.000000   6.128456
    13  N    0.000000   0.000000   0.000000   0.000000   0.000000   0.000000
    14  C    0.000000   0.000000   0.000000   0.000000   0.000000   0.000000
    15  C    0.000000   0.000000   0.000000   0.000000   0.000000   0.000000
    16  O    0.000000   0.000000   0.000000   0.000000   0.000000   0.000000
    17  C    0.000000   0.000000   0.000000   0.000000   0.000000   0.000000
    18  H    0.000000   0.000000   0.000000   0.000000   0.000000   0.000000
    19  H    0.000000   0.000000   0.000000   0.000000   0.000000   0.000000
    20  H    0.000000   0.000000   0.000000   0.000000   0.000000   0.000000
    21  H    0.000000   0.000000   0.000000   0.000000   0.000000   0.000000
              13         14         15         16         17         18
     1  C    0.000000   0.000000   0.000000   0.000000   0.000000   0.000000
     2  O    0.000000   0.000000   0.000000   0.000000   0.000000   0.000000
     3  N    0.000000   0.000000   0.000000   0.000000   0.000000   0.000000
     4  C    0.000000   0.000000   0.000000   0.000000   0.000000   0.000000
     5  C    0.000000   0.000000   0.000000   0.000000   0.000000   0.000000
     6  O    0.000000   0.000000   0.000000   0.000000   0.000000   0.000000
     7  N    0.000000   0.000000   0.000000   0.000000   0.000000   0.000000
     8  C    0.000000   0.000000   0.000000   0.000000   0.000000   0.000000
     9  C    0.000000   0.000000   0.000000   0.000000   0.000000   0.000000
    10  C    0.000000   0.000000   0.000000   0.000000   0.000000   0.000000
    11  C    0.000000   0.000000   0.000000   0.000000   0.000000   0.000000
    12  O    0.000000   0.000000   0.000000   0.000000   0.000000   0.000000
    13  N    5.219496   0.000000   0.000000   0.000000   0.000000   0.000000
    14  C    0.000000   3.619835   0.000000   0.000000   0.000000   0.000000
    15  C    0.000000   0.000000   4.133219   0.000000   0.000000   0.000000
    16  O    0.000000   0.000000   0.000000   5.992717   0.000000   0.000000
    17  C    0.000000   0.000000   0.000000   0.000000   2.922324   0.000000
    18  H    0.000000   0.000000   0.000000   0.000000   0.000000   0.983466
    19  H    0.000000   0.000000   0.000000   0.000000   0.000000   0.000000
    20  H    0.000000   0.000000   0.000000   0.000000   0.000000   0.000000
    21  H    0.000000   0.000000   0.000000   0.000000   0.000000   0.000000
              19         20         21
     1  C    0.000000   0.000000   0.000000
     2  O    0.000000   0.000000   0.000000
     3  N    0.000000   0.000000   0.000000
     4  C    0.000000   0.000000   0.000000
     5  C    0.000000   0.000000   0.000000
     6  O    0.000000   0.000000   0.000000
     7  N    0.000000   0.000000   0.000000
     8  C    0.000000   0.000000   0.000000
     9  C    0.000000   0.000000   0.000000
    10  C    0.000000   0.000000   0.000000
    11  C    0.000000   0.000000   0.000000
    12  O    0.000000   0.000000   0.000000
    13  N    0.000000   0.000000   0.000000
    14  C    0.000000   0.000000   0.000000
    15  C    0.000000   0.000000   0.000000
    16  O    0.000000   0.000000   0.000000
    17  C    0.000000   0.000000   0.000000
    18  H    0.000000   0.000000   0.000000
    19  H    1.501078   0.000000   0.000000
    20  H    0.000000   0.765216   0.000000
    21  H    0.000000   0.000000   0.595116
 Mulliken charges:
               1
     1  C    0.467306
     2  O    0.051156
     3  N   -0.053725
     4  C    0.276195
     5  C    0.385042
     6  O   -0.164529
     7  N   -0.380855
     8  C    0.299368
     9  C   -0.434170
    10  C    1.071175
    11  C    0.343961
    12  O   -0.128456
    13  N   -0.219496
    14  C    0.380165
    15  C   -0.133219
    16  O    0.007283
    17  C    1.077676
    18  H    0.016534
    19  H   -0.501078
    20  H    0.234784
    21  H    0.404884
 Sum of Mulliken charges =   3.00000
 Mulliken charges with hydrogens summed into heavy atoms:
               1
     1  C    0.483839
     2  O    0.051156
     3  N   -0.053725
     4  C    0.276195
     5  C    0.385042
     6  O   -0.164529
     7  N   -0.380855
     8  C    0.299368
     9  C   -0.935249
    10  C    1.071175
    11  C    0.343961
    12  O   -0.128456
    13  N   -0.219496
    14  C    1.019833
    15  C   -0.133219
    16  O    0.007283
    17  C    1.077676
 Charge=              3.0000 electrons
 Dipole moment (field-independent basis, Debye):
    X=             55.1006    Y=              7.7005    Z=            244.6233  Tot=            250.8703
 N-N= 5.909658670943D+02 E-N=-9.120712971855D+02  KE=-1.705280814232D+02
 Leave Link  601 at Wed Jan  5 15:22:32 2022, MaxMem=   402653184 cpu:               2.0 elap:               0.6
 (Enter /work/01114/jfonner/frontera/gaussian/16rC.01/g16/l9999.exe)

 Test job not archived.
 1\1\GINC-C208-022\SP\RPM6\ZDO\C10H4N3O4(3+)\SA748948\05-Jan-2022\0\\#p
  int=acc2e=12 pm6 charge nosymm\\Atom number=21\\3,1\C,0,4.271,0.817,1
 1.296\O,0,4.359,2.033,11.367\N,0,3.492,0.104,12.073\C,0,2.585,0.677,13
 .085\C,0,3.006,0.047,14.361\O,0,2.958,-1.169,14.515\N,0,3.481,0.887,15
 .262\C,0,4.163,0.392,16.442\C,0,1.127,0.33,12.827\C,0,0.248,0.675,14.0
 38\C,0,3.424,0.965,17.631\O,0,3.136,2.11,17.612\N,0,3.173,0.129,18.647
 \C,0,2.559,0.516,19.903\C,0,5.688,0.75,16.389\O,0,6.264,0.13,15.236\C,
 0,6.42,0.21,17.569\H,0,4.84396452,0.24331567,10.59778947\H,0,0.8027527
 1,0.84321259,11.94587769\H,0,3.12112137,0.06260754,20.69252824\H,0,1.5
 5947137,0.13827525,19.95927184\\Version=ES64L-G16RevC.01\HF=0.095495\R
 MSD=6.885e-09\Dipole=1.5066634,-0.1825236,10.203932\PG=C01 [X(C10H4N3O
 4)]\\@


 A great many people think they are thinking when they
 are merely rearranging their prejudices.
                               -- William James
 Job cpu time:       0 days  0 hours  6 minutes 23.2 seconds.
 Elapsed time:       0 days  0 hours  1 minutes  6.0 seconds.
 File lengths (MBytes):  RWF=      6 Int=      0 D2E=      0 Chk=      2 Scr=      1
 Normal termination of Gaussian 16 at Wed Jan  5 15:22:33 2022.
