Atom number=15                                                          
SP        RPM6                                                        ZDO                 
Number of atoms                            I               15
Info1-9                                    I   N=           9
          79          78           0           0           0         111
           1           8        2302
Full Title                                 C   N=           2
Atom number=15          
Route                                      C   N=           9
#p int=acc2e=12 pm6 charge nosymm int=acc2e=12 scf=(noincfoc
k,novaracc,fermi,maxcycle=128,ndamp=64,xqc)     
Charge                                     I                3
Multiplicity                               I                1
Number of electrons                        I               58
Number of alpha electrons                  I               29
Number of beta electrons                   I               29
Number of basis functions                  I               54
Number of independent functions            I               54
Number of point charges in /Mol/           I                0
Number of translation vectors              I                0
Atomic numbers                             I   N=          15
           7           6           6           8           7           6
           6           8           7           6           6           6
           6           1           1
Nuclear charges                            R   N=          15
  5.00000000E+00  4.00000000E+00  4.00000000E+00  6.00000000E+00  5.00000000E+00
  4.00000000E+00  4.00000000E+00  6.00000000E+00  5.00000000E+00  4.00000000E+00
  4.00000000E+00  4.00000000E+00  4.00000000E+00  1.00000000E+00  1.00000000E+00
Current cartesian coordinates              R   N=          45
 -1.28784835E+01 -1.26233705E+00  3.03678988E+00 -1.07978951E+01  3.77945225E-03
  4.48432009E+00 -8.23353672E+00 -1.27178568E+00  4.89061121E+00 -7.95952644E+00
 -3.53378785E+00  4.70919750E+00 -6.38916403E+00  2.36215766E-01  5.58036125E+00
 -3.89661527E+00 -7.36993189E-01  6.18696333E+00 -3.09159194E+00  3.30702072E-01
  8.69274017E+00 -3.29568236E+00  2.56246862E+00  9.18784842E+00 -2.06925011E+00
 -1.32280829E+00  1.02328670E+01 -1.08092334E+00 -5.87704825E-01  1.26025835E+01
 -1.87649804E+00 -8.50376756E-02  4.15172830E+00  7.36993189E-01 -9.22186349E-01
  4.98887697E+00 -2.60404260E+00 -1.25099869E+00  1.69508433E+00  8.00135174E-01
 -1.31108639E+00  1.27664434E+01 -2.19024250E+00 -1.38366446E+00  1.40940162E+01
Number of symbols in /Mol/                 I                0
Int Atom Types                             I   N=          15
           0           0           0           0           0           0
           0           0           0           0           0           0
           0           0           0
Force Field                                I                0
Atom Types                                 C   N=          15
                                                            
                                                            
                                                            
MM charges                                 R   N=          15
  0.00000000E+00  0.00000000E+00  0.00000000E+00  0.00000000E+00  0.00000000E+00
  0.00000000E+00  0.00000000E+00  0.00000000E+00  0.00000000E+00  0.00000000E+00
  0.00000000E+00  0.00000000E+00  0.00000000E+00  0.00000000E+00  0.00000000E+00
Integer atomic weights                     I   N=          15
          14          12          12          16          14          12
          12          16          14          12          12          12
          12           1           1
Real atomic weights                        R   N=          15
  1.40030740E+01  1.20000000E+01  1.20000000E+01  1.59949146E+01  1.40030740E+01
  1.20000000E+01  1.20000000E+01  1.59949146E+01  1.40030740E+01  1.20000000E+01
  1.20000000E+01  1.20000000E+01  1.20000000E+01  1.00782504E+00  1.00782504E+00
Atom fragment info                         I   N=          15
           0           0           0           0           0           0
           0           0           0           0           0           0
           0           0           0
Atom residue num                           I   N=          15
           0           0           0           0           0           0
           0           0           0           0           0           0
           0           0           0
Nuclear spins                              I   N=          15
           2           0           0           0           2           0
           0           0           2           0           0           0
           0           1           1
Nuclear ZEff                               R   N=          15
 -4.90000000E+00 -3.90000000E+00 -3.90000000E+00 -6.00000000E+00 -4.90000000E+00
 -3.90000000E+00 -3.90000000E+00 -6.00000000E+00 -4.90000000E+00 -3.90000000E+00
 -3.90000000E+00 -3.90000000E+00 -3.90000000E+00 -1.00000000E+00 -1.00000000E+00
Nuclear ZNuc                               R   N=          15
  7.00000000E+00  6.00000000E+00  6.00000000E+00  8.00000000E+00  7.00000000E+00
  6.00000000E+00  6.00000000E+00  8.00000000E+00  7.00000000E+00  6.00000000E+00
  6.00000000E+00  6.00000000E+00  6.00000000E+00  1.00000000E+00  1.00000000E+00
Nuclear QMom                               R   N=          15
  2.04400000E+00  0.00000000E+00  0.00000000E+00  0.00000000E+00  2.04400000E+00
  0.00000000E+00  0.00000000E+00  0.00000000E+00  2.04400000E+00  0.00000000E+00
  0.00000000E+00  0.00000000E+00  0.00000000E+00  0.00000000E+00  0.00000000E+00
Nuclear GFac                               R   N=          15
  4.03761000E-01  0.00000000E+00  0.00000000E+00  0.00000000E+00  4.03761000E-01
  0.00000000E+00  0.00000000E+00  0.00000000E+00  4.03761000E-01  0.00000000E+00
  0.00000000E+00  0.00000000E+00  0.00000000E+00  2.79284600E+00  2.79284600E+00
MicOpt                                     I   N=          15
          -1          -1          -1          -1          -1          -1
          -1          -1          -1          -1          -1          -1
          -1          -1          -1
Number of residues                         I                0
Number of secondary structures             I                0
Number of contracted shells                I               15
Number of primitive shells                 I               90
Pure/Cartesian d shells                    I                0
Pure/Cartesian f shells                    I                0
Highest angular momentum                   I                1
Largest degree of contraction              I                6
Shell types                                I   N=          15
          -1          -1          -1          -1          -1          -1
          -1          -1          -1          -1          -1          -1
          -1           0           0
Number of primitives per shell             I   N=          15
           6           6           6           6           6           6
           6           6           6           6           6           6
           6           6           6
Shell to atom map                          I   N=          15
           1           2           3           4           5           6
           7           8           9          10          11          12
          13          14          15
Primitive exponents                        R   N=          90
  1.54719623E+01  4.45513742E+00  1.75231709E+00  8.00868468E-01  3.98565014E-01
  2.04687870E-01  1.14476344E+01  3.29633588E+00  1.29653143E+00  5.92558930E-01
  2.94896438E-01  1.51447622E-01  1.14476344E+01  3.29633588E+00  1.29653143E+00
  5.92558930E-01  2.94896438E-01  1.51447622E-01  8.02643074E+01  2.31120341E+01
  9.09054165E+00  4.15468650E+00  2.06764625E+00  1.06186467E+00  1.54719623E+01
  4.45513742E+00  1.75231709E+00  8.00868468E-01  3.98565014E-01  2.04687870E-01
  1.14476344E+01  3.29633588E+00  1.29653143E+00  5.92558930E-01  2.94896438E-01
  1.51447622E-01  1.14476344E+01  3.29633588E+00  1.29653143E+00  5.92558930E-01
  2.94896438E-01  1.51447622E-01  8.02643074E+01  2.31120341E+01  9.09054165E+00
  4.15468650E+00  2.06764625E+00  1.06186467E+00  1.54719623E+01  4.45513742E+00
  1.75231709E+00  8.00868468E-01  3.98565014E-01  2.04687870E-01  1.14476344E+01
  3.29633588E+00  1.29653143E+00  5.92558930E-01  2.94896438E-01  1.51447622E-01
  1.14476344E+01  3.29633588E+00  1.29653143E+00  5.92558930E-01  2.94896438E-01
  1.51447622E-01  1.14476344E+01  3.29633588E+00  1.29653143E+00  5.92558930E-01
  2.94896438E-01  1.51447622E-01  1.14476344E+01  3.29633588E+00  1.29653143E+00
  5.92558930E-01  2.94896438E-01  1.51447622E-01  4.39461478E+00  1.26542531E+00
  4.97723458E-01  2.27476537E-01  1.13207340E-01  5.81389949E-02  4.39461478E+00
  1.26542531E+00  4.97723458E-01  2.27476537E-01  1.13207340E-01  5.81389949E-02
Contraction coefficients                   R   N=          90
 -9.73739553E-03 -7.26587678E-02 -1.71615520E-01  1.28977624E-01  7.28861451E-01
  3.01331742E-01 -9.73739553E-03 -7.26587678E-02 -1.71615520E-01  1.28977624E-01
  7.28861451E-01  3.01331742E-01 -9.73739553E-03 -7.26587678E-02 -1.71615520E-01
  1.28977624E-01  7.28861451E-01  3.01331742E-01 -9.73739553E-03 -7.26587678E-02
 -1.71615520E-01  1.28977624E-01  7.28861451E-01  3.01331742E-01 -9.73739553E-03
 -7.26587678E-02 -1.71615520E-01  1.28977624E-01  7.28861451E-01  3.01331742E-01
 -9.73739553E-03 -7.26587678E-02 -1.71615520E-01  1.28977624E-01  7.28861451E-01
  3.01331742E-01 -9.73739553E-03 -7.26587678E-02 -1.71615520E-01  1.28977624E-01
  7.28861451E-01  3.01331742E-01 -9.73739553E-03 -7.26587678E-02 -1.71615520E-01
  1.28977624E-01  7.28861451E-01  3.01331742E-01 -9.73739553E-03 -7.26587678E-02
 -1.71615520E-01  1.28977624E-01  7.28861451E-01  3.01331742E-01 -9.73739553E-03
 -7.26587678E-02 -1.71615520E-01  1.28977624E-01  7.28861451E-01  3.01331742E-01
 -9.73739553E-03 -7.26587678E-02 -1.71615520E-01  1.28977624E-01  7.28861451E-01
  3.01331742E-01 -9.73739553E-03 -7.26587678E-02 -1.71615520E-01  1.28977624E-01
  7.28861451E-01  3.01331742E-01 -9.73739553E-03 -7.26587678E-02 -1.71615520E-01
  1.28977624E-01  7.28861451E-01  3.01331742E-01 -9.73739553E-03 -7.26587678E-02
 -1.71615520E-01  1.28977624E-01  7.28861451E-01  3.01331742E-01 -9.73739553E-03
 -7.26587678E-02 -1.71615520E-01  1.28977624E-01  7.28861451E-01  3.01331742E-01
P(S=P) Contraction coefficients            R   N=          90
 -8.10494336E-03 -1.71547892E-02  7.36978576E-02  3.96514999E-01  4.97808488E-01
  1.17482582E-01 -8.10494336E-03 -1.71547892E-02  7.36978576E-02  3.96514999E-01
  4.97808488E-01  1.17482582E-01 -8.10494336E-03 -1.71547892E-02  7.36978576E-02
  3.96514999E-01  4.97808488E-01  1.17482582E-01 -8.10494336E-03 -1.71547892E-02
  7.36978576E-02  3.96514999E-01  4.97808488E-01  1.17482582E-01 -8.10494336E-03
 -1.71547892E-02  7.36978576E-02  3.96514999E-01  4.97808488E-01  1.17482582E-01
 -8.10494336E-03 -1.71547892E-02  7.36978576E-02  3.96514999E-01  4.97808488E-01
  1.17482582E-01 -8.10494336E-03 -1.71547892E-02  7.36978576E-02  3.96514999E-01
  4.97808488E-01  1.17482582E-01 -8.10494336E-03 -1.71547892E-02  7.36978576E-02
  3.96514999E-01  4.97808488E-01  1.17482582E-01 -8.10494336E-03 -1.71547892E-02
  7.36978576E-02  3.96514999E-01  4.97808488E-01  1.17482582E-01 -8.10494336E-03
 -1.71547892E-02  7.36978576E-02  3.96514999E-01  4.97808488E-01  1.17482582E-01
 -8.10494336E-03 -1.71547892E-02  7.36978576E-02  3.96514999E-01  4.97808488E-01
  1.17482582E-01 -8.10494336E-03 -1.71547892E-02  7.36978576E-02  3.96514999E-01
  4.97808488E-01  1.17482582E-01 -8.10494336E-03 -1.71547892E-02  7.36978576E-02
  3.96514999E-01  4.97808488E-01  1.17482582E-01  0.00000000E+00  0.00000000E+00
  0.00000000E+00  0.00000000E+00  0.00000000E+00  0.00000000E+00  0.00000000E+00
  0.00000000E+00  0.00000000E+00  0.00000000E+00  0.00000000E+00  0.00000000E+00
Coordinates of each shell                  R   N=          45
 -1.28784835E+01 -1.26233705E+00  3.03678988E+00 -1.07978951E+01  3.77945225E-03
  4.48432009E+00 -8.23353672E+00 -1.27178568E+00  4.89061121E+00 -7.95952644E+00
 -3.53378785E+00  4.70919750E+00 -6.38916403E+00  2.36215766E-01  5.58036125E+00
 -3.89661527E+00 -7.36993189E-01  6.18696333E+00 -3.09159194E+00  3.30702072E-01
  8.69274017E+00 -3.29568236E+00  2.56246862E+00  9.18784842E+00 -2.06925011E+00
 -1.32280829E+00  1.02328670E+01 -1.08092334E+00 -5.87704825E-01  1.26025835E+01
 -1.87649804E+00 -8.50376756E-02  4.15172830E+00  7.36993189E-01 -9.22186349E-01
  4.98887697E+00 -2.60404260E+00 -1.25099869E+00  1.69508433E+00  8.00135174E-01
 -1.31108639E+00  1.27664434E+01 -2.19024250E+00 -1.38366446E+00  1.40940162E+01
Num ILSW                                   I              100
ILSW                                       I   N=         100
           0           0           0           0           2           0
           0           0           0           0           0          -1
           5           0           0           0           0           0
           0           0           0           0           0           0
           1           1           0           0           0           0
           0           0      100000           0          -1           0
           0           0           0           0           0           0
           0           0           0          40           0           0
           0 -2000000000           1           0           0           0
           0           0           4          52           0           0
           0           1           0           0           0           0
           0           0           0          15           0           1
           0           0           0           0           0           0
           0           0           0           0           0           0
           0           0           0           0           0           0
           0           0           0           0           0           0
           0           0           0           0
Num RLSW                                   I               52
RLSW                                       R   N=          52
  1.00000000E+00  1.00000000E+00  1.00000000E+00  1.00000000E+00  1.00000000E+00
  0.00000000E+00  0.00000000E+00  1.00000000E+00  0.00000000E+00  0.00000000E+00
  0.00000000E+00  0.00000000E+00  1.00000000E+00  0.00000000E+00  0.00000000E+00
  0.00000000E+00  0.00000000E+00  1.00000000E+00  0.00000000E+00  0.00000000E+00
  0.00000000E+00  0.00000000E+00  1.00000000E+00  0.00000000E+00  0.00000000E+00
  0.00000000E+00  0.00000000E+00  1.00000000E+00  0.00000000E+00  0.00000000E+00
  0.00000000E+00  0.00000000E+00  1.00000000E+00  0.00000000E+00  0.00000000E+00
  0.00000000E+00  0.00000000E+00  0.00000000E+00  1.00000000E+00  1.00000000E+00
  0.00000000E+00  1.00000000E+00  0.00000000E+00  0.00000000E+00  0.00000000E+00
  0.00000000E+00  0.00000000E+00  0.00000000E+00  0.00000000E+00  0.00000000E+00
  0.00000000E+00  0.00000000E+00
MxBond                                     I                3
NBond                                      I   N=          15
           1           2           3           1           2           3
           3           1           2           3           3           1
           1           1           1
IBond                                      I   N=          45
           2           0           0           1           3           0
           2           4           5           3           0           0
           3           6           0           5           7          11
           6           8           9           7           0           0
           7          10           0           9          14          15
           6          12          13          11           0           0
          11           0           0          10           0           0
          10           0           0
RBond                                      R   N=          45
  1.00000000E+00  0.00000000E+00  0.00000000E+00  1.00000000E+00  1.00000000E+00
  0.00000000E+00  1.00000000E+00  2.00000000E+00  1.50000000E+00  2.00000000E+00
  0.00000000E+00  0.00000000E+00  1.50000000E+00  1.00000000E+00  0.00000000E+00
  1.00000000E+00  1.00000000E+00  1.00000000E+00  1.00000000E+00  2.00000000E+00
  1.50000000E+00  2.00000000E+00  0.00000000E+00  0.00000000E+00  1.50000000E+00
  1.00000000E+00  0.00000000E+00  1.00000000E+00  1.00000000E+00  1.00000000E+00
  1.00000000E+00  1.00000000E+00  1.00000000E+00  1.00000000E+00  0.00000000E+00
  0.00000000E+00  1.00000000E+00  0.00000000E+00  0.00000000E+00  1.00000000E+00
  0.00000000E+00  0.00000000E+00  1.00000000E+00  0.00000000E+00  0.00000000E+00
Virial Ratio                               R      9.864393780164897E-01
SCF Energy                                 R     -1.636446467702456E+00
Total Energy                               R     -1.636446467702456E+00
RMS Density                                R      9.243564384819418E-09
Job Status                                 I                1
Nuclear derivative order                   I                0
External E-field                           R   N=          35
  0.00000000E+00  0.00000000E+00  0.00000000E+00  0.00000000E+00  0.00000000E+00
  0.00000000E+00  0.00000000E+00  0.00000000E+00  0.00000000E+00  0.00000000E+00
  0.00000000E+00  0.00000000E+00  0.00000000E+00  0.00000000E+00  0.00000000E+00
  0.00000000E+00  0.00000000E+00  0.00000000E+00  0.00000000E+00  0.00000000E+00
  0.00000000E+00  0.00000000E+00  0.00000000E+00  0.00000000E+00  0.00000000E+00
  0.00000000E+00  0.00000000E+00  0.00000000E+00  0.00000000E+00  0.00000000E+00
  0.00000000E+00  0.00000000E+00  0.00000000E+00  0.00000000E+00  0.00000000E+00
IOpCl                                      I                0
IROHF                                      I                0
Alpha Orbital Energies                     R   N=          54
 -1.69260403E+00 -1.62018212E+00 -1.59624418E+00 -1.52569136E+00 -1.44946221E+00
 -1.38897871E+00 -1.33324281E+00 -1.28810515E+00 -1.22078610E+00 -1.17410177E+00
 -1.12289025E+00 -1.07829769E+00 -1.06005162E+00 -1.04038827E+00 -1.02785126E+00
 -9.99560507E-01 -9.67456084E-01 -9.49410847E-01 -9.31877310E-01 -9.05228976E-01
 -8.93354606E-01 -8.68489260E-01 -8.58291268E-01 -8.37583602E-01 -8.21733998E-01
 -7.79721990E-01 -7.74044368E-01 -7.47733105E-01 -7.18513200E-01 -6.20517720E-01
 -5.07829032E-01 -4.97867345E-01 -4.67667364E-01 -4.54729641E-01 -4.45759081E-01
 -4.31523611E-01 -4.14618868E-01 -4.11430896E-01 -3.96825526E-01 -3.84927919E-01
 -3.53253384E-01 -3.42777144E-01 -3.34883676E-01 -3.24712783E-01 -3.13774674E-01
 -3.12759021E-01 -2.91085025E-01 -2.88197984E-01 -2.64400119E-01 -2.60328278E-01
 -2.51111676E-01 -2.32111229E-01 -2.10902829E-01 -1.93632788E-02
Alpha MO coefficients                      R   N=        2916
 -6.99549829E-04 -3.69834259E-04 -1.01559655E-04 -3.44363657E-04 -9.46865289E-04
  6.52785706E-04  2.16174812E-04  3.88127492E-04  8.62033645E-03  9.90545675E-03
  1.45989093E-03  5.44884544E-03  2.76223870E-03  1.54346389E-03  3.42484684E-03
  1.39103844E-03  4.79521848E-02  2.67999992E-02 -7.42435758E-03  1.93109689E-02
  1.26724274E-01  2.42107764E-02  4.48739116E-02  8.69138357E-02  5.30133287E-01
  5.36679379E-02  9.23319767E-02  1.49997844E-01  4.46118605E-01  3.98848434E-02
 -2.69300269E-01 -2.79082448E-02  5.15885410E-01 -4.33315141E-02  2.08072391E-01
 -2.36243687E-02  2.02741238E-01 -6.04513067E-02 -7.88723130E-03 -1.29365906E-01
  2.83789562E-02 -9.77179740E-03 -3.32692254E-04  3.25277805E-02  1.36523629E-02
 -1.19929743E-02  3.13645574E-03  7.15247016E-03 -5.21261423E-04 -5.81359414E-04
  4.42708180E-04  3.40467038E-03  5.93661579E-02  4.40490598E-02  6.85626589E-03
  1.37230374E-02 -3.41516891E-03  4.06669977E-03  7.92906588E-02  7.95329361E-02
 -4.17014083E-02  1.26525085E-02  5.11543382E-01  1.65492413E-01 -1.17769964E-01
  3.23270381E-02  4.39781078E-01  5.64701845E-03  2.76750762E-01  3.30183181E-02
  5.15842179E-01 -3.96059066E-02 -2.02544566E-01 -3.72907745E-02  2.17822792E-01
 -1.34682975E-01  2.59298112E-02 -4.01671897E-02  2.49728796E-02 -4.87710261E-02
  1.70369475E-02 -6.96412762E-02  2.54872648E-02 -1.10070040E-02 -1.05063247E-02
 -2.08207264E-02 -9.87724229E-02 -1.08846413E-02 -2.55407240E-02 -2.31889879E-02
 -5.93720746E-02  1.15031302E-02  7.31921979E-03  2.85110041E-02  5.34391115E-02
 -4.49688096E-02 -1.11232664E-02  1.71695108E-02  4.69738003E-03 -8.72152449E-03
  4.24062616E-04 -5.43957006E-04  2.54478149E-02 -7.73358768E-03  4.72020081E-03
  2.00911102E-02 -2.03637912E-02 -1.37126588E-02 -2.52758166E-03 -3.19857833E-03
  3.35676461E-04 -1.00124538E-03 -1.34434886E-02 -1.13007516E-02  8.18367830E-03
 -9.76101156E-04 -7.54976000E-02 -1.39947409E-02  3.42787719E-02  3.92705035E-04
 -8.71726470E-02  2.82629880E-03 -4.68711365E-02 -4.39991877E-03 -1.99729224E-02
  2.78089007E-02  2.89716770E-02  1.36187030E-02 -6.89885220E-03 -7.23922450E-03
  4.59862360E-02 -6.02870142E-03  5.55815387E-02 -1.13660834E-01  4.05833770E-01
 -7.15264700E-02  6.11976462E-01 -3.34519105E-03 -1.61494867E-01 -7.51465823E-02
 -5.24291160E-01 -1.37237847E-02 -8.62025067E-02 -4.61577371E-02 -2.61855286E-01
  4.95971831E-02  4.44086899E-02  1.26417862E-01 -4.69050465E-04 -4.15042123E-03
  9.67218503E-03  2.20544992E-03 -6.13624035E-03  2.94043599E-03  1.91602190E-03
 -2.45216177E-03 -2.57332724E-03 -3.89315615E-04  1.00061917E-03 -1.68783443E-03
 -9.27895976E-02 -6.14760902E-02  2.73718484E-02  1.88175954E-02 -1.79920436E-05
  1.00824228E-02  2.79874086E-02 -3.30033991E-03 -4.39863120E-02 -9.48149508E-03
  1.09104012E-01 -1.10757499E-01 -3.53303528E-01 -7.09503243E-02  5.61286753E-01
 -6.20195230E-02  1.78945740E-01  2.20941913E-03 -4.66881929E-01 -8.66176596E-02
  6.80842706E-02 -1.49077697E-02 -3.59589951E-01  8.02148966E-02 -6.78235115E-02
  1.42220536E-02 -9.97277625E-02  4.14370871E-02  1.08312995E-01  1.30336200E-01
  1.47066011E-01  1.75298686E-02 -7.06376733E-03  3.08412576E-02  2.14406386E-02
  3.53800689E-02  1.12744270E-02  7.99999421E-02  7.66107212E-02 -8.53394676E-03
 -8.65988273E-03 -2.23391995E-02 -1.53451445E-01  6.30951595E-02  3.07992521E-02
 -4.90151218E-02 -4.98334061E-02  3.84287938E-02 -4.85511689E-03  1.72007356E-03
 -6.21845672E-02  1.00567946E-03 -1.20860946E-02 -4.42768268E-02  2.95055744E-02
  1.91591036E-02 -5.72647172E-03 -8.36483042E-03 -2.70529551E-03 -2.81669936E-03
 -7.91659619E-02 -5.91599124E-02  5.76616562E-04 -1.29436634E-02 -1.61002233E-01
 -6.31345205E-02 -2.36934879E-01 -4.53032548E-02  2.64997862E-01 -2.45221694E-02
  1.04547718E-02 -6.95223089E-03 -2.72479117E-01  1.92508598E-01  6.54104359E-02
  6.68401821E-02  3.30943964E-01  1.73449222E-01  3.95532093E-02  6.54262670E-02
  2.68374319E-01  2.02175044E-03 -1.73615404E-01 -1.64345255E-01 -1.77883232E-01
 -2.98718917E-03 -4.59692236E-02 -5.39443944E-02 -5.70562821E-02 -1.16913880E-01
  1.55591684E-02 -2.72573687E-01 -3.02315636E-01  1.61613464E-02  4.87501075E-02
  5.91846056E-02  3.20552262E-01 -7.52726087E-03 -7.76370150E-02  7.32535627E-02
  1.86852971E-01 -1.03021946E-01  1.59269377E-02 -1.30540467E-02  1.38132490E-01
  2.40910977E-02  2.03646452E-02  8.23897758E-02 -1.30624178E-01 -8.01656215E-02
 -1.08086740E-02 -6.86037496E-03 -2.10767807E-03 -3.64060496E-03 -3.05316469E-02
 -1.27700886E-02  6.05369027E-03 -2.56943901E-03 -4.06001222E-02  8.40905125E-03
 -3.12120104E-02 -1.69581153E-02  2.90085136E-02  4.67251376E-03 -6.37486402E-03
 -5.59512676E-03 -2.37495378E-02  5.83774064E-02  5.37244874E-03 -3.36583303E-02
  7.89151547E-02  7.52382757E-02  6.83552806E-04 -2.10160620E-01 -2.29577116E-01
 -6.08116296E-03  1.58806867E-01 -3.78112242E-02  1.40767909E-01  2.02646563E-03
  6.67408353E-02 -2.65545567E-03 -2.10941647E-02  1.68236645E-01 -6.14564230E-02
  2.92984061E-01  3.75464455E-01  1.20655249E-02 -6.54573911E-02 -3.55318870E-02
  4.85527322E-01  3.32734651E-02 -1.36989436E-01 -6.81169417E-02  2.98557624E-01
 -1.38567186E-01  1.99442055E-02 -6.00146900E-02  3.45658328E-01  5.28156548E-02
  4.68855242E-02  1.53125745E-01  1.83868588E-01  1.02760487E-01  2.97960628E-01
  1.40595509E-01  5.62931955E-02  8.17831945E-02  4.18056356E-01  4.52653687E-02
 -1.06827982E-01 -4.23243869E-02  3.00916310E-01 -1.54659324E-01  1.95253753E-01
 -2.36119909E-02 -2.07164023E-01 -6.03649390E-02  7.08817138E-02 -9.99769762E-03
 -6.45796488E-02 -2.95048256E-01  2.13678920E-05 -9.71565624E-02 -2.27945959E-01
  1.43053549E-01 -7.20128446E-02 -1.86488026E-02  3.58525554E-02  9.94757037E-02
 -4.17082405E-02  1.34067086E-01  7.99415937E-03  3.94841695E-02 -1.62886625E-02
  4.78873150E-02  5.04139260E-02 -7.75530570E-02  5.82206936E-02 -1.55020197E-01
 -2.33963479E-01 -2.06049798E-02  4.35360358E-02 -6.59416077E-03  1.92245017E-01
  1.34056407E-01 -7.34613470E-02 -8.18540611E-02  2.23033321E-01 -7.38922766E-02
  1.16280506E-02 -3.85679752E-02  1.72807484E-01  4.63528293E-02  1.76588489E-02
  5.75966995E-02 -1.25579779E-01 -6.85253586E-02  5.30390453E-01  1.95247495E-01
  9.74128675E-02  1.27520375E-01  3.94609898E-01 -1.57802452E-01 -1.29738446E-01
 -1.19833253E-01 -3.18116029E-02 -1.88826776E-01 -3.91902117E-02 -5.53359137E-02
  4.53201481E-03 -6.83738729E-02 -1.54133922E-02 -2.06970202E-02 -4.93954964E-02
  1.84188711E-01  5.28552344E-02  7.43663863E-02  2.60946010E-01 -6.67578736E-03
  7.97498102E-02  6.32582646E-02  3.82983395E-02 -9.35214649E-02  2.40871435E-02
 -2.10996098E-01 -4.24635176E-02 -3.76549212E-02 -6.47701609E-03 -8.55921531E-02
 -8.86711227E-02  7.78163288E-02 -6.48592317E-02  1.14224664E-01  2.36872721E-01
  4.30488213E-02 -4.22184689E-02  3.38613479E-02 -8.76600667E-02 -1.04781602E-01
  5.28441421E-02  1.32704118E-01 -1.31344021E-01  3.11629407E-02 -2.27971847E-03
  3.69823431E-02 -1.67873740E-01 -3.49585441E-02 -1.37372857E-02 -3.85297407E-02
  1.42666166E-01  7.16310682E-02  2.00497595E-01  4.64240284E-02  3.52053795E-02
  3.54952527E-02  1.47640875E-02 -1.31679443E-01 -1.69526934E-02 -6.17961009E-02
 -1.40513630E-01  3.92625977E-02 -6.30367639E-02 -2.36696017E-02  6.50956578E-02
  2.67693410E-02 -5.37213055E-02 -1.22729255E-02  5.58818524E-02  1.65892223E-01
 -6.41696406E-03 -6.66661085E-03 -1.84204705E-02 -1.59691609E-01 -1.17431196E-02
 -1.54144767E-01 -7.97926403E-02 -3.27626152E-04 -1.28601134E-02  1.75258228E-01
  5.09294263E-02 -8.82593012E-03  2.82707018E-02  8.55787304E-02  1.08554208E-01
 -6.44590980E-02  3.43751191E-02 -1.14293993E-02 -1.65752748E-01 -7.12134243E-02
  2.12859401E-02 -5.97643343E-02  8.79624255E-03 -3.02807944E-01 -4.02195456E-02
 -3.36269048E-01 -4.80612144E-01  7.08872273E-02 -3.32765773E-02 -3.07187398E-02
  4.96746409E-01 -1.87825606E-02  4.00686459E-02  7.28687846E-02 -1.27371407E-01
 -5.06311621E-02  3.25315077E-01  4.46335143E-02  5.28816791E-02  4.30647706E-02
 -7.88037556E-02 -2.50241622E-01  1.97491228E-03 -1.00415324E-01 -2.49121979E-01
  1.79070875E-01 -7.99472865E-02  2.19240625E-02  1.44637942E-01  9.41229092E-02
 -1.18873436E-01  4.68915801E-03  2.08012881E-01  1.74423408E-01 -2.66271052E-02
  2.56575561E-02 -7.44460770E-02 -1.95396026E-01 -6.41228015E-03 -1.19674078E-01
 -1.89643090E-01  3.26605815E-02 -5.31405090E-03  1.81882303E-01  1.31548130E-01
  3.09048130E-03  1.19479743E-01  1.14282160E-01  1.63234641E-01 -2.39195105E-02
  5.31891916E-03  3.97999131E-02 -2.06292612E-01 -1.08054119E-01  8.71838016E-03
 -1.19219221E-01 -1.27899596E-02  2.24384427E-01  1.04010661E-02  1.05807508E-01
  3.88920850E-01 -2.24146063E-02  1.29230866E-02 -5.21944364E-03 -2.61930473E-01
  2.18964692E-02 -1.54615592E-02 -2.42122387E-02 -1.73350178E-01 -6.82259413E-02
 -1.68546831E-01 -4.46232732E-03 -2.33897963E-02 -1.44392946E-02  8.10470869E-02
  1.35636853E-01 -1.51510063E-02  4.21392257E-02  1.14504495E-01 -1.36479393E-01
  1.28020872E-02 -7.40574943E-02 -9.31214940E-02 -7.48716152E-02  7.75449263E-02
 -3.30046874E-02 -1.20523395E-01  5.19077382E-02  1.30808914E-03 -8.82838621E-02
  2.32810249E-01  1.69186028E-01 -2.20245828E-02 -2.08145348E-01 -2.37116712E-01
  1.14203727E-01 -4.91464556E-02 -9.04050588E-02  2.86641943E-01  4.57091187E-02
  3.15136305E-01  1.82423676E-02  2.60222054E-01  1.22732478E-01 -1.25236975E-01
  6.51554698E-02 -2.24048090E-01 -1.01320748E-01 -5.10351232E-02 -1.99232124E-01
  1.01983632E-01 -2.28721875E-01  5.63098518E-03  2.54200173E-01 -1.85879464E-01
 -3.19041032E-02  4.37827884E-03  5.35616472E-02 -2.33641909E-01 -5.64118809E-02
  1.35570525E-03  3.32895255E-02 -1.79071097E-01 -8.62498043E-02  1.93638732E-01
 -9.47258371E-03  2.17054184E-02 -4.54849577E-03 -1.36514728E-01 -1.39604441E-01
  3.12122359E-02 -7.17754686E-02 -4.89359300E-02  2.70460734E-01  2.78837315E-02
 -2.73422340E-02  3.58668691E-02  1.59119395E-01 -2.36766706E-02 -2.34694397E-02
 -8.47939616E-04 -1.29821837E-01 -7.74259176E-02 -2.11504527E-01 -1.78414365E-02
  2.08675224E-01 -6.61169850E-02 -2.01765046E-01  2.35051578E-02  4.10007399E-01
  1.88726541E-02  5.32937870E-02 -6.67163080E-03  3.21345207E-01  6.21008217E-03
  3.02109076E-02 -1.41947251E-01  1.52849757E-01  1.74277918E-01 -2.77757386E-01
  8.97986572E-02  2.51740281E-01  6.64228132E-02  1.06385320E-01  8.47913393E-02
 -1.50648649E-01 -7.06642227E-03  1.51575462E-01 -1.64493180E-01 -3.89340965E-02
  7.92446297E-03  4.05220791E-02 -1.29916019E-01 -3.94268692E-02  3.91599763E-03
  3.46460043E-02  1.98005046E-01 -8.09531201E-04  8.59680776E-02 -1.07988378E-02
  5.89271748E-03  3.57601805E-03 -5.82350645E-02 -6.44853058E-02  8.55554624E-03
 -7.77728715E-03 -7.86320587E-03  9.58838820E-02 -4.70214204E-03  9.69857071E-02
 -6.39839201E-03  5.85695060E-02  1.16068196E-03  6.42007929E-02 -3.88909305E-02
 -1.18700485E-01 -8.09387017E-02  8.81858326E-02  2.54027639E-02 -1.91879492E-03
 -1.08208047E-01  2.58945597E-01 -4.33700725E-02 -4.75024753E-02 -3.08767085E-01