 Entering Gaussian System, Link 0=g16
 Input=NCCONCCOCCCNCCOCCCNCCOCCNCCNNCCONCCOCCCNCCOCOCNCCOCOCNCCOCCCNCCOCO_15.gjf
 Output=NCCONCCOCCCNCCOCCCNCCOCCNCCNNCCONCCOCCCNCCOCOCNCCOCOCNCCOCCCNCCOCO_15.log
 Initial command:
 /work/01114/jfonner/frontera/gaussian/16rC.01/g16/l1.exe "/scratch1/08249/sa748948/lsqc/26989325/Gau-47472.inp" -scrdir="/scratch1/08249/sa748948/lsqc/26989325/"
 Entering Link 1 = /work/01114/jfonner/frontera/gaussian/16rC.01/g16/l1.exe PID=     47473.
  
 Copyright (c) 1988-2019, Gaussian, Inc.  All Rights Reserved.
  
 This is part of the Gaussian(R) 16 program.  It is based on
 the Gaussian(R) 09 system (copyright 2009, Gaussian, Inc.),
 the Gaussian(R) 03 system (copyright 2003, Gaussian, Inc.),
 the Gaussian(R) 98 system (copyright 1998, Gaussian, Inc.),
 the Gaussian(R) 94 system (copyright 1995, Gaussian, Inc.),
 the Gaussian 92(TM) system (copyright 1992, Gaussian, Inc.),
 the Gaussian 90(TM) system (copyright 1990, Gaussian, Inc.),
 the Gaussian 88(TM) system (copyright 1988, Gaussian, Inc.),
 the Gaussian 86(TM) system (copyright 1986, Carnegie Mellon
 University), and the Gaussian 82(TM) system (copyright 1983,
 Carnegie Mellon University). Gaussian is a federally registered
 trademark of Gaussian, Inc.
  
 This software contains proprietary and confidential information,
 including trade secrets, belonging to Gaussian, Inc.
  
 This software is provided under written license and may be
 used, copied, transmitted, or stored only in accord with that
 written license.
  
 The following legend is applicable only to US Government
 contracts under FAR:
  
                    RESTRICTED RIGHTS LEGEND
  
 Use, reproduction and disclosure by the US Government is
 subject to restrictions as set forth in subparagraphs (a)
 and (c) of the Commercial Computer Software - Restricted
 Rights clause in FAR 52.227-19.
  
 Gaussian, Inc.
 340 Quinnipiac St., Bldg. 40, Wallingford CT 06492
  
  
 ---------------------------------------------------------------
 Warning -- This program may not be used in any manner that
 competes with the business of Gaussian, Inc. or will provide
 assistance to any competitor of Gaussian, Inc.  The licensee
 of this program is prohibited from giving any competitor of
 Gaussian, Inc. access to this program.  By using this program,
 the user acknowledges that Gaussian, Inc. is engaged in the
 business of creating and licensing software in the field of
 computational chemistry and represents and warrants to the
 licensee that it is not a competitor of Gaussian, Inc. and that
 it will not use this program in any manner prohibited above.
 ---------------------------------------------------------------
  

 Cite this work as:
 Gaussian 16, Revision C.01,
 M. J. Frisch, G. W. Trucks, H. B. Schlegel, G. E. Scuseria, 
 M. A. Robb, J. R. Cheeseman, G. Scalmani, V. Barone, 
 G. A. Petersson, H. Nakatsuji, X. Li, M. Caricato, A. V. Marenich, 
 J. Bloino, B. G. Janesko, R. Gomperts, B. Mennucci, H. P. Hratchian, 
 J. V. Ortiz, A. F. Izmaylov, J. L. Sonnenberg, D. Williams-Young, 
 F. Ding, F. Lipparini, F. Egidi, J. Goings, B. Peng, A. Petrone, 
 T. Henderson, D. Ranasinghe, V. G. Zakrzewski, J. Gao, N. Rega, 
 G. Zheng, W. Liang, M. Hada, M. Ehara, K. Toyota, R. Fukuda, 
 J. Hasegawa, M. Ishida, T. Nakajima, Y. Honda, O. Kitao, H. Nakai, 
 T. Vreven, K. Throssell, J. A. Montgomery, Jr., J. E. Peralta, 
 F. Ogliaro, M. J. Bearpark, J. J. Heyd, E. N. Brothers, K. N. Kudin, 
 V. N. Staroverov, T. A. Keith, R. Kobayashi, J. Normand, 
 K. Raghavachari, A. P. Rendell, J. C. Burant, S. S. Iyengar, 
 J. Tomasi, M. Cossi, J. M. Millam, M. Klene, C. Adamo, R. Cammi, 
 J. W. Ochterski, R. L. Martin, K. Morokuma, O. Farkas, 
 J. B. Foresman, and D. J. Fox, Gaussian, Inc., Wallingford CT, 2019.
 
 ******************************************
 Gaussian 16:  ES64L-G16RevC.01  3-Jul-2019
                 7-Jan-2022 
 ******************************************
 %chk=NCCONCCOCCCNCCOCCCNCCOCCNCCNNCCONCCOCCCNCCOCOCNCCOCOCNCCOCCCNCCOCO_15.chk
 %nproc=56
 Will use up to   56 processors via shared memory.
 %mem=3gb
 ---------------------------------
 #p int=acc2e=12 pm6 charge nosymm
 ---------------------------------
 1/18=10,28=-2,38=1,125=101,172=1/1;
 2/12=2,15=1,17=6,18=5,40=1/2;
 3/5=2,25=1,27=12,41=3900000/1,2,3;
 4/35=1/1;
 5/5=2,35=1,38=5,87=12/2;
 6/7=2,8=2,9=2,10=2,28=1,87=12/1;
 99/5=1,9=1/99;
 Leave Link    1 at Fri Jan  7 12:01:16 2022, MaxMem=   402653184 cpu:               3.1 elap:               0.6
 (Enter /work/01114/jfonner/frontera/gaussian/16rC.01/g16/l101.exe)
 --------------
 Atom number=11
 --------------
 Symbolic Z-matrix:
 Charge =  1 Multiplicity = 1
 c                     3.91099   0.25802   8.22899 
 o                     4.064     1.478     8.228 
 n                     4.36399  -0.52699   9.18901 
 c                     5.067     0.02      10.32599 
 c                     4.271     0.81698   11.296 
 o                     4.35899   2.03299   11.36699 
 n                     3.49199   0.10401   12.07299 
 c                     2.58499   0.67699   13.085 
 h                     3.39884  -0.23067   7.42663 
 h                     2.88854   0.22276   14.00502 
 h                     1.55915   0.43285   12.90347 
 
 ITRead=  0  0  0  0  0  0  0  0  0  0  0
 MicOpt= -1 -1 -1 -1 -1 -1 -1 -1 -1 -1 -1
 NAtoms=     11 NQM=       11 NQMF=       0 NMMI=      0 NMMIF=      0
                NMic=       0 NMicF=      0.
                    Isotopes and Nuclear Properties:
 (Nuclear quadrupole moments (NQMom) in fm**2, nuclear magnetic moments (NMagM)
  in nuclear magnetons)

  Atom         1           2           3           4           5           6           7           8           9          10
 IAtWgt=          12          16          14          12          12          16          14          12           1           1
 AtmWgt=  12.0000000  15.9949146  14.0030740  12.0000000  12.0000000  15.9949146  14.0030740  12.0000000   1.0078250   1.0078250
 NucSpn=           0           0           2           0           0           0           2           0           1           1
 AtZEff=  -0.0000000  -0.0000000  -0.0000000  -0.0000000  -0.0000000  -0.0000000  -0.0000000  -0.0000000  -0.0000000  -0.0000000
 NQMom=    0.0000000   0.0000000   2.0440000   0.0000000   0.0000000   0.0000000   2.0440000   0.0000000   0.0000000   0.0000000
 NMagM=    0.0000000   0.0000000   0.4037610   0.0000000   0.0000000   0.0000000   0.4037610   0.0000000   2.7928460   2.7928460
 AtZNuc=   6.0000000   8.0000000   7.0000000   6.0000000   6.0000000   8.0000000   7.0000000   6.0000000   1.0000000   1.0000000

  Atom        11
 IAtWgt=           1
 AtmWgt=   1.0078250
 NucSpn=           1
 AtZEff=  -0.0000000
 NQMom=    0.0000000
 NMagM=    2.7928460
 AtZNuc=   1.0000000
 Background charge distribution read from input stream:
 Point Charges:
 XYZ=   -6.8150   -0.6680    1.6070 Q=    0.1840 A=    0.0000 R=    0.0000 C=    0.0000
 XYZ=   -5.7140    0.0020    2.3730 Q=    0.1690 A=    0.0000 R=    0.0000 C=    0.0000
 XYZ=   -4.3570   -0.6730    2.5880 Q=    0.1957 A=    0.0000 R=    0.0000 C=    0.0000
 XYZ=   -4.2120   -1.8700    2.4920 Q=   -0.4612 A=    0.0000 R=    0.0000 C=    0.0000
 XYZ=   -3.3810    0.1250    2.9530 Q=   -0.3003 A=    0.0000 R=    0.0000 C=    0.0000
 XYZ=   -2.0620   -0.3900    3.2740 Q=    0.2639 A=    0.0000 R=    0.0000 C=    0.0000
 XYZ=   -1.6360    0.1750    4.6000 Q=    0.1489 A=    0.0000 R=    0.0000 C=    0.0000
 XYZ=   -1.7440    1.3560    4.8620 Q=   -0.3095 A=    0.0000 R=    0.0000 C=    0.0000
 XYZ=   -0.9930   -0.0450    2.1970 Q=   -1.2213 A=    0.0000 R=    0.0000 C=    0.0000
 XYZ=    0.3900   -0.4880    2.6400 Q=    0.9359 A=    0.0000 R=    0.0000 C=    0.0000
 XYZ=   -1.3780   -0.6620    0.8970 Q=    0.8742 A=    0.0000 R=    0.0000 C=    0.0000
 XYZ=   -1.0950   -0.7000    5.4150 Q=   -0.4278 A=    0.0000 R=    0.0000 C=    0.0000
 XYZ=   -0.5720   -0.3110    6.6690 Q=    0.2444 A=    0.0000 R=    0.0000 C=    0.0000
 XYZ=    0.8400   -0.8540    6.7920 Q=    0.2936 A=    0.0000 R=    0.0000 C=    0.0000
 XYZ=    1.0270   -2.0220    6.7200 Q=   -0.4614 A=    0.0000 R=    0.0000 C=    0.0000
 XYZ=   -1.4110   -0.9130    7.7970 Q=   -1.2094 A=    0.0000 R=    0.0000 C=    0.0000
 XYZ=   -0.7270   -0.6450    9.1230 Q=    0.9838 A=    0.0000 R=    0.0000 C=    0.0000
 XYZ=   -2.8000   -0.3490    7.7890 Q=    0.9737 A=    0.0000 R=    0.0000 C=    0.0000
 XYZ=    1.8100    0.0020    7.0230 Q=   -0.6094 A=    0.0000 R=    0.0000 C=    0.0000
 XYZ=    3.1910   -0.4290    7.1010 Q=   -0.0383 A=    0.0000 R=    0.0000 C=    0.0000
 XYZ=    3.8710   -0.1030    5.7480 Q=    0.4467 A=    0.0000 R=    0.0000 C=    0.0000
 XYZ=    5.2470   -0.6430    5.5810 Q=   -0.4177 A=    0.0000 R=    0.0000 C=    0.0000
 XYZ=    5.8610   -0.6890    4.3530 Q=   -0.2968 A=    0.0000 R=    0.0000 C=    0.0000
 XYZ=    6.1080   -1.1970    6.4480 Q=    0.2630 A=    0.0000 R=    0.0000 C=    0.0000
 XYZ=    7.0590   -1.2270    4.4820 Q=    0.6103 A=    0.0000 R=    0.0000 C=    0.0000
 XYZ=    7.2390   -1.5230    5.7510 Q=   -0.3347 A=    0.0000 R=    0.0000 C=    0.0000
 XYZ=    3.0060    0.0470   14.3610 Q=    0.2391 A=    0.0000 R=    0.0000 C=    0.0000
 XYZ=    2.9580   -1.1690   14.5150 Q=   -0.4626 A=    0.0000 R=    0.0000 C=    0.0000
 XYZ=    1.1270    0.3300   12.8270 Q=   -1.2217 A=    0.0000 R=    0.0000 C=    0.0000
 XYZ=    0.2480    0.6750   14.0380 Q=    0.9822 A=    0.0000 R=    0.0000 C=    0.0000
 XYZ=    0.6740    1.0470   11.5960 Q=    0.9278 A=    0.0000 R=    0.0000 C=    0.0000
 XYZ=    3.4810    0.8870   15.2620 Q=   -0.6284 A=    0.0000 R=    0.0000 C=    0.0000
 XYZ=    4.1630    0.3920   16.4420 Q=    0.1821 A=    0.0000 R=    0.0000 C=    0.0000
 XYZ=    3.4240    0.9650   17.6310 Q=    0.3166 A=    0.0000 R=    0.0000 C=    0.0000
 XYZ=    3.1360    2.1100   17.6120 Q=   -0.5694 A=    0.0000 R=    0.0000 C=    0.0000
 XYZ=    5.6880    0.7500   16.3890 Q=   -0.3175 A=    0.0000 R=    0.0000 C=    0.0000
 XYZ=    6.2640    0.1300   15.2360 Q=   -0.3082 A=    0.0000 R=    0.0000 C=    0.0000
 XYZ=    6.4200    0.2100   17.5690 Q=    0.9463 A=    0.0000 R=    0.0000 C=    0.0000
 XYZ=    3.1730    0.1290   18.6470 Q=   -0.5421 A=    0.0000 R=    0.0000 C=    0.0000
 XYZ=    2.5590    0.5160   19.9030 Q=    0.0236 A=    0.0000 R=    0.0000 C=    0.0000
 XYZ=    3.3500   -0.1220   21.0140 Q=    0.1847 A=    0.0000 R=    0.0000 C=    0.0000
 XYZ=    3.3660   -1.3390   21.1400 Q=   -0.4163 A=    0.0000 R=    0.0000 C=    0.0000
 XYZ=    1.1380   -0.0210   19.9830 Q=   -0.2907 A=    0.0000 R=    0.0000 C=    0.0000
 XYZ=    0.3930    0.3940   18.8240 Q=   -0.3415 A=    0.0000 R=    0.0000 C=    0.0000
 XYZ=    0.4860    0.5010   21.1670 Q=    0.7765 A=    0.0000 R=    0.0000 C=    0.0000
 XYZ=    4.0670    0.6880   21.7680 Q=   -0.6191 A=    0.0000 R=    0.0000 C=    0.0000
 XYZ=    4.8880    0.2050   22.8510 Q=    0.2833 A=    0.0000 R=    0.0000 C=    0.0000
 XYZ=    4.3500    0.7690   24.1740 Q=    0.1730 A=    0.0000 R=    0.0000 C=    0.0000
 XYZ=    4.1610    1.9810   24.2690 Q=   -0.2861 A=    0.0000 R=    0.0000 C=    0.0000
 XYZ=    6.3620    0.6140   22.6520 Q=   -1.1933 A=    0.0000 R=    0.0000 C=    0.0000
 XYZ=    7.1520    0.2970   23.8740 Q=    0.8585 A=    0.0000 R=    0.0000 C=    0.0000
 XYZ=    6.9530   -0.1210   21.4550 Q=    0.9590 A=    0.0000 R=    0.0000 C=    0.0000
 XYZ=    4.0650   -0.1200   25.1510 Q=   -0.4907 A=    0.0000 R=    0.0000 C=    0.0000
 XYZ=    3.7200    0.3130   26.5150 Q=   -0.3576 A=    0.0000 R=    0.0000 C=    0.0000
 XYZ=    4.9410    0.1400   27.4200 Q=    0.0549 A=    0.0000 R=    0.0000 C=    0.0000
 XYZ=    5.7140   -0.8090   27.2870 Q=   -0.0565 A=    0.0000 R=    0.0000 C=    0.0000
 XYZ=    2.4990   -0.4220   27.0620 Q=    1.1023 A=    0.0000 R=    0.0000 C=    0.0000
 XYZ=    5.2500    0.9550   28.2940 Q=    0.3115 A=    0.0000 R=    0.0000 C=    0.0000
 Pt Chg Charge=              0.7191 electrons
 Pt Chg Dipole moment (Debye):
    X=             -1.8166    Y=             -2.3314    Z=             67.2501  Tot=             67.3150
 Pt Chg Quadrupole moment (Debye-Ang):
   XX=            266.8020   YY=            -36.0998   ZZ=           2343.6708
   XY=            -41.5236   XZ=            257.5267   YZ=            -81.9119
 Pt Chg Traceless Quadrupole moment (Debye-Ang):
   XX=           -591.3224   YY=           -894.2241   ZZ=           1485.5465
   XY=            -41.5236   XZ=            257.5267   YZ=            -81.9119
 Pt Chg Octapole moment (Debye-Ang**2):
  XXX=           1701.7134  YYY=              5.2046  ZZZ=          73907.4068  XYY=            -57.3742
  XXY=           -180.0712  XXZ=           4866.6622  XZZ=          10298.9473  YZZ=          -2575.0492
  YYZ=           -491.0082  XYZ=           -719.7059
 Pt Chg Hexadecapole moment (Debye-Ang**3):
 XXXX=          19732.0516 YYYY=           -151.0307 ZZZZ=        2222140.2304 XXXY=          -1067.0994
 XXXZ=          42120.9841 YYYX=           -145.9911 YYYZ=           -345.3549 ZZZX=         320430.6942
 ZZZY=         -64988.7179 XXYY=           -435.5224 XXZZ=         114240.2266 YYZZ=          -8423.2128
 XXYZ=          -3123.5846 YYXZ=          -1652.4922 ZZXY=         -14324.6765
 Leave Link  101 at Fri Jan  7 12:01:17 2022, MaxMem=   402653184 cpu:               7.6 elap:               1.6
 (Enter /work/01114/jfonner/frontera/gaussian/16rC.01/g16/l202.exe)
                          Input orientation:                          
 ---------------------------------------------------------------------
 Center     Atomic      Atomic             Coordinates (Angstroms)
 Number     Number       Type             X           Y           Z
 ---------------------------------------------------------------------
      1          6           0        3.910993    0.258017    8.228992
      2          8           0        4.063997    1.477998    8.227997
      3          7           0        4.363991   -0.526991    9.189008
      4          6           0        5.066996    0.019997   10.325992
      5          6           0        4.271002    0.816983   11.295996
      6          8           0        4.358988    2.032994   11.366992
      7          7           0        3.491993    0.104011   12.072989
      8          6           0        2.584986    0.676989   13.085005
      9          1           0        3.398845   -0.230667    7.426625
     10          1           0        2.888540    0.222758   14.005021
     11          1           0        1.559150    0.432847   12.903470
 ---------------------------------------------------------------------
                    Distance matrix (angstroms):
                    1          2          3          4          5
     1  C    0.000000
     2  O    1.229538   0.000000
     3  N    1.320256   2.243551   0.000000
     4  C    2.406327   2.744697   1.444350   0.000000
     5  C    3.138242   3.145220   2.500862   1.486506   0.000000
     6  O    3.632944   3.201301   3.361125   2.374261   1.221256
     7  N    3.869831   4.122983   3.078294   2.353655   1.311069
     8  C    5.051207   5.140001   4.448957   3.768841   2.462275
     9  H    1.070000   2.001040   2.031085   3.354384   4.102470
    10  H    5.865932   6.027548   5.092451   4.280425   3.098890
    11  H    5.235692   5.406167   4.752436   4.372507   3.175794
                    6          7          8          9         10
     6  O    0.000000
     7  N    2.229594   0.000000
     8  C    2.817339   1.474836   0.000000
     9  H    4.644623   4.659332   5.788218   0.000000
    10  H    3.521132   2.027561   1.070000   6.613720   0.000000
    11  H    3.572160   2.129251   1.070000   5.815544   1.739203
                   11
    11  H    0.000000
 Symmetry turned off by external request.
 Stoichiometry    C4H3N2O2(1+)
 Framework group  C1[X(C4H3N2O2)]
 Deg. of freedom    27
 Full point group                 C1      NOp   1
 Rotational constants (GHZ):           4.5092650           1.3127273           1.2073639
 Leave Link  202 at Fri Jan  7 12:01:18 2022, MaxMem=   402653184 cpu:               3.7 elap:               0.8
 (Enter /work/01114/jfonner/frontera/gaussian/16rC.01/g16/l301.exe)
 Standard basis: VSTO-6G (5D, 7F)
 Ernie: Thresh=  0.10000D-02 Tol=  0.10000D-05 Strict=F.
  NNHCO=     0 NNPyr=     0 NCTC=     0               EPep=         0.000000000
    EC=       140.716736640  ECS=         2.691495269   EG=         0.201066585
   EHC=         0.001009357  EAt=       -52.136431766  AtH=         1.888392205
 EPDDG=         0.000000000  ECC=       143.610307851 EAtT=        54.024823971
    35 basis functions,   210 primitive gaussians,    35 cartesian basis functions
    20 alpha electrons       20 beta electrons
       nuclear repulsion energy       197.6351318223 Hartrees.
 IExCor=    0 DFT=F Ex=HF Corr=None ExCW=0 ScaHFX=  1.000000
 ScaDFX=  1.000000  1.000000  1.000000  1.000000 ScalE2=  1.000000  1.000000
 IRadAn=      5 IRanWt=     -1 IRanGd=            0 ICorTp=0 IEmpDi=  4
 Integral buffers will be    131072 words long.
 Regular integral format.
 Two-electron integral symmetry is turned off.
 Background charge distribution read from rwf.
 PtFMM for NChg=        69 BoxLen=    40.00 Levels= 1 LMax=20 SMax=    51.8 ICnFMM=     1:
 Self energy of the charges =        -3.7574101975 a.u.
 MM   energy of the charges =         0.0000000000 a.u.
 Nuclei-charges interaction =        -3.2394936515 a.u.
 Nuclear repulsion after external point charges =      190.6382279734 Hartrees.
 Leave Link  301 at Fri Jan  7 12:01:19 2022, MaxMem=   402653184 cpu:               5.7 elap:               1.2
 (Enter /work/01114/jfonner/frontera/gaussian/16rC.01/g16/l302.exe)
 Do NDO integrals.
 NPDir=0 NMtPBC=     1 NCelOv=     1 NCel=       1 NClECP=     1 NCelD=      1
         NCelK=      1 NCelE2=     1 NClLst=     1 CellRange=     0.0.
 One-electron integrals computed using PRISM.
 NBasis=    35 RedAO= F EigKep=  0.00D+00  NBF=    35
 NBsUse=    35 1.00D-04 EigRej=  0.00D+00 NBFU=    35
 Leave Link  302 at Fri Jan  7 12:01:23 2022, MaxMem=   402653184 cpu:              23.0 elap:               3.9
 (Enter /work/01114/jfonner/frontera/gaussian/16rC.01/g16/l303.exe)
 DipDrv:  MaxL=1.
 Leave Link  303 at Fri Jan  7 12:01:24 2022, MaxMem=   402653184 cpu:               4.3 elap:               1.0
 (Enter /work/01114/jfonner/frontera/gaussian/16rC.01/g16/l401.exe)
 Simple Huckel Guess.
 JPrj=0 DoOrth=F DoCkMO=F.
 Leave Link  401 at Fri Jan  7 12:01:26 2022, MaxMem=   402653184 cpu:              10.2 elap:               1.9
 (Enter /work/01114/jfonner/frontera/gaussian/16rC.01/g16/l502.exe)
 Keep J ints in memory in canonical form, NReq=863046.
 FoFCou: FMM=F IPFlag=           0 FMFlag=           0 FMFlg1=           0
         NFxFlg=           0 DoJE=F BraDBF=F KetDBF=F FulRan=T
         wScrn=  0.000000 ICntrl=       600 IOpCl=  2 I1Cent=           0 NGrid=           0
         NMat0=    1 NMatS0=     83 NMatT0=    0 NMatD0=    1 NMtDS0=    0 NMtDT0=    0
 Symmetry not used in FoFCou.
 Two-electron integral symmetry not used.
 Closed shell SCF:
 Using DIIS extrapolation, IDIIS=  1040.
 Overlap will be assumed to be unity.
 NGot=   402653184 LenX=   402585499 LenY=   402583833
 Requested convergence on RMS density matrix=1.00D-08 within 128 cycles.
 Requested convergence on MAX density matrix=1.00D-06.
 Requested convergence on             energy=1.00D-06.
 No special actions if energy rises.

 Cycle   1  Pass 1  IDiag  1:
 E= -3.31002315970707    
 DIIS: error= 7.84D-02 at cycle   1 NSaved=   1.
 NSaved= 1 IEnMin= 1 EnMin= -3.31002315970707     IErMin= 1 ErrMin= 7.84D-02
 ErrMax= 7.84D-02  0.00D+00 EMaxC= 1.00D-01 BMatC= 1.52D-01 BMatP= 1.52D-01
 IDIUse=3 WtCom= 2.16D-01 WtEn= 7.84D-01
 Coeff-Com:  0.100D+01
 Coeff-En:   0.100D+01
 Coeff:      0.100D+01
 GapD=    2.000 DampG=2.000 DampE=0.500 DampFc=1.0000 IDamp=-1.
 RMSDP=2.39D-02 MaxDP=2.37D-01              OVMax= 0.00D+00

 Cycle   2  Pass 1  IDiag  1:
 E= -3.87264818966918     Delta-E=       -0.562625029962 Rises=F Damp=F
 DIIS: error= 2.80D-02 at cycle   2 NSaved=   2.
 NSaved= 2 IEnMin= 2 EnMin= -3.87264818966918     IErMin= 2 ErrMin= 2.80D-02
 ErrMax= 2.80D-02  0.00D+00 EMaxC= 1.00D-01 BMatC= 2.26D-02 BMatP= 1.52D-01
 IDIUse=3 WtCom= 7.20D-01 WtEn= 2.80D-01
 Coeff-Com: -0.298D+00 0.130D+01
 Coeff-En:   0.000D+00 0.100D+01
 Coeff:     -0.215D+00 0.121D+01
 RMSDP=9.88D-03 MaxDP=7.97D-02 DE=-5.63D-01 OVMax= 0.00D+00

 Cycle   3  Pass 1  IDiag  1:
 E= -3.96075746202257     Delta-E=       -0.088109272353 Rises=F Damp=F
 DIIS: error= 6.39D-03 at cycle   3 NSaved=   3.
 NSaved= 3 IEnMin= 3 EnMin= -3.96075746202257     IErMin= 3 ErrMin= 6.39D-03
 ErrMax= 6.39D-03  0.00D+00 EMaxC= 1.00D-01 BMatC= 2.24D-03 BMatP= 2.26D-02
 IDIUse=3 WtCom= 9.36D-01 WtEn= 6.39D-02
 Coeff-Com: -0.491D-01-0.137D+00 0.119D+01
 Coeff-En:   0.000D+00 0.000D+00 0.100D+01
 Coeff:     -0.460D-01-0.128D+00 0.117D+01
 RMSDP=4.51D-03 MaxDP=2.90D-02 DE=-8.81D-02 OVMax= 0.00D+00

 Cycle   4  Pass 1  IDiag  3:
 E= -3.97357164123903     Delta-E=       -0.012814179216 Rises=F Damp=F
 DIIS: error= 3.18D-03 at cycle   4 NSaved=   4.
 NSaved= 4 IEnMin= 4 EnMin= -3.97357164123903     IErMin= 4 ErrMin= 3.18D-03
 ErrMax= 3.18D-03  0.00D+00 EMaxC= 1.00D-01 BMatC= 2.93D-04 BMatP= 2.24D-03
 IDIUse=3 WtCom= 9.68D-01 WtEn= 3.18D-02
 Coeff-Com:  0.426D-01-0.853D-01-0.237D+00 0.128D+01
 Coeff-En:   0.000D+00 0.000D+00 0.000D+00 0.100D+01
 Coeff:      0.413D-01-0.826D-01-0.229D+00 0.127D+01
 Gap=     0.213 Goal=   None    Shift=    0.000
 RMSDP=2.36D-03 MaxDP=1.60D-02 DE=-1.28D-02 OVMax= 3.64D-02

 Cycle   5  Pass 1  IDiag  3:
 E= -3.97640534557576     Delta-E=       -0.002833704337 Rises=F Damp=F
 DIIS: error= 2.02D-03 at cycle   5 NSaved=   5.
 NSaved= 5 IEnMin= 5 EnMin= -3.97640534557576     IErMin= 5 ErrMin= 2.02D-03
 ErrMax= 2.02D-03  0.00D+00 EMaxC= 1.00D-01 BMatC= 7.73D-05 BMatP= 2.93D-04
 IDIUse=3 WtCom= 9.80D-01 WtEn= 2.02D-02
 Coeff-Com: -0.254D-01 0.726D-01 0.142D-01-0.898D+00 0.184D+01
 Coeff-En:   0.000D+00 0.000D+00 0.000D+00 0.000D+00 0.100D+01
 Coeff:     -0.249D-01 0.711D-01 0.139D-01-0.879D+00 0.182D+01
 Gap=     0.217 Goal=   None    Shift=    0.000
 RMSDP=2.10D-03 MaxDP=1.52D-02 DE=-2.83D-03 OVMax= 3.77D-02

 Cycle   6  Pass 1  IDiag  3:
 E= -3.97766689859455     Delta-E=       -0.001261553019 Rises=F Damp=F
 DIIS: error= 8.78D-04 at cycle   6 NSaved=   6.
 NSaved= 6 IEnMin= 6 EnMin= -3.97766689859455     IErMin= 6 ErrMin= 8.78D-04
 ErrMax= 8.78D-04  0.00D+00 EMaxC= 1.00D-01 BMatC= 1.71D-05 BMatP= 7.73D-05
 IDIUse=3 WtCom= 9.91D-01 WtEn= 8.78D-03
 Coeff-Com:  0.478D-02-0.205D-01 0.591D-01 0.230D+00-0.117D+01 0.190D+01
 Coeff-En:   0.000D+00 0.000D+00 0.000D+00 0.000D+00 0.000D+00 0.100D+01
 Coeff:      0.474D-02-0.204D-01 0.586D-01 0.227D+00-0.116D+01 0.189D+01
 Gap=     0.217 Goal=   None    Shift=    0.000
 RMSDP=1.36D-03 MaxDP=1.06D-02 DE=-1.26D-03 OVMax= 2.63D-02

 Cycle   7  Pass 1  IDiag  3:
 E= -3.97800039729623     Delta-E=       -0.000333498702 Rises=F Damp=F
 DIIS: error= 1.75D-04 at cycle   7 NSaved=   7.
 NSaved= 7 IEnMin= 7 EnMin= -3.97800039729623     IErMin= 7 ErrMin= 1.75D-04
 ErrMax= 1.75D-04  0.00D+00 EMaxC= 1.00D-01 BMatC= 2.05D-06 BMatP= 1.71D-05
 IDIUse=3 WtCom= 9.98D-01 WtEn= 1.75D-03
 Coeff-Com: -0.232D-03 0.260D-02-0.268D-01-0.387D-01 0.396D+00-0.977D+00
 Coeff-Com:  0.164D+01
 Coeff-En:   0.000D+00 0.000D+00 0.000D+00 0.000D+00 0.000D+00 0.000D+00
 Coeff-En:   0.100D+01
 Coeff:     -0.232D-03 0.260D-02-0.267D-01-0.386D-01 0.396D+00-0.975D+00
 Coeff:      0.164D+01
 Gap=     0.217 Goal=   None    Shift=    0.000
 RMSDP=4.32D-04 MaxDP=3.66D-03 DE=-3.33D-04 OVMax= 8.71D-03

 Cycle   8  Pass 1  IDiag  3:
 E= -3.97803402532648     Delta-E=       -0.000033628030 Rises=F Damp=F
 DIIS: error= 5.53D-05 at cycle   8 NSaved=   8.
 NSaved= 8 IEnMin= 8 EnMin= -3.97803402532648     IErMin= 8 ErrMin= 5.53D-05
 ErrMax= 5.53D-05  0.00D+00 EMaxC= 1.00D-01 BMatC= 2.88D-07 BMatP= 2.05D-06
 IDIUse=1 WtCom= 1.00D+00 WtEn= 0.00D+00
 Coeff-Com: -0.731D-03 0.174D-02 0.672D-02-0.109D-01-0.536D-01 0.241D+00
 Coeff-Com: -0.748D+00 0.156D+01
 Coeff:     -0.731D-03 0.174D-02 0.672D-02-0.109D-01-0.536D-01 0.241D+00
 Coeff:     -0.748D+00 0.156D+01
 Gap=     0.217 Goal=   None    Shift=    0.000
 RMSDP=1.27D-04 MaxDP=9.30D-04 DE=-3.36D-05 OVMax= 2.32D-03

 Cycle   9  Pass 1  IDiag  3:
 E= -3.97803799837968     Delta-E=       -0.000003973053 Rises=F Damp=F
 DIIS: error= 2.57D-05 at cycle   9 NSaved=   9.
 NSaved= 9 IEnMin= 9 EnMin= -3.97803799837968     IErMin= 9 ErrMin= 2.57D-05
 ErrMax= 2.57D-05  0.00D+00 EMaxC= 1.00D-01 BMatC= 4.99D-08 BMatP= 2.88D-07
 IDIUse=1 WtCom= 1.00D+00 WtEn= 0.00D+00
 Coeff-Com:  0.193D-03-0.260D-03-0.252D-02 0.326D-02 0.124D-01-0.515D-01
 Coeff-Com:  0.170D+00-0.699D+00 0.157D+01
 Coeff:      0.193D-03-0.260D-03-0.252D-02 0.326D-02 0.124D-01-0.515D-01
 Coeff:      0.170D+00-0.699D+00 0.157D+01
 Gap=     0.217 Goal=   None    Shift=    0.000
 RMSDP=5.82D-05 MaxDP=3.02D-04 DE=-3.97D-06 OVMax= 8.27D-04

 Cycle  10  Pass 1  IDiag  3:
 E= -3.97803880036702     Delta-E=       -0.000000801987 Rises=F Damp=F
 DIIS: error= 1.21D-05 at cycle  10 NSaved=  10.
 NSaved=10 IEnMin=10 EnMin= -3.97803880036702     IErMin=10 ErrMin= 1.21D-05
 ErrMax= 1.21D-05  0.00D+00 EMaxC= 1.00D-01 BMatC= 1.11D-08 BMatP= 4.99D-08
 IDIUse=1 WtCom= 1.00D+00 WtEn= 0.00D+00
 Coeff-Com: -0.163D-03 0.301D-03 0.740D-03-0.457D-02 0.807D-02-0.575D-02
 Coeff-Com: -0.602D-02 0.187D+00-0.886D+00 0.171D+01
 Coeff:     -0.163D-03 0.301D-03 0.740D-03-0.457D-02 0.807D-02-0.575D-02
 Coeff:     -0.602D-02 0.187D+00-0.886D+00 0.171D+01
 Gap=     0.217 Goal=   None    Shift=    0.000
 RMSDP=3.11D-05 MaxDP=1.44D-04 DE=-8.02D-07 OVMax= 5.79D-04

 Cycle  11  Pass 1  IDiag  3:
 E= -3.97803902435228     Delta-E=       -0.000000223985 Rises=F Damp=F
 DIIS: error= 5.99D-06 at cycle  11 NSaved=  11.
 NSaved=11 IEnMin=11 EnMin= -3.97803902435228     IErMin=11 ErrMin= 5.99D-06
 ErrMax= 5.99D-06  0.00D+00 EMaxC= 1.00D-01 BMatC= 3.30D-09 BMatP= 1.11D-08
 IDIUse=1 WtCom= 1.00D+00 WtEn= 0.00D+00
 Coeff-Com:  0.311D-04-0.108D-03 0.648D-03 0.173D-02-0.114D-01 0.267D-01
 Coeff-Com: -0.630D-01 0.117D+00 0.128D-01-0.810D+00 0.173D+01
 Coeff:      0.311D-04-0.108D-03 0.648D-03 0.173D-02-0.114D-01 0.267D-01
 Coeff:     -0.630D-01 0.117D+00 0.128D-01-0.810D+00 0.173D+01
 Gap=     0.217 Goal=   None    Shift=    0.000
 RMSDP=2.15D-05 MaxDP=1.21D-04 DE=-2.24D-07 OVMax= 4.57D-04

 Cycle  12  Pass 1  IDiag  3:
 E= -3.97803910888317     Delta-E=       -0.000000084531 Rises=F Damp=F
 DIIS: error= 3.33D-06 at cycle  12 NSaved=  12.
 NSaved=12 IEnMin=12 EnMin= -3.97803910888317     IErMin=12 ErrMin= 3.33D-06
 ErrMax= 3.33D-06  0.00D+00 EMaxC= 1.00D-01 BMatC= 1.05D-09 BMatP= 3.30D-09
 IDIUse=1 WtCom= 1.00D+00 WtEn= 0.00D+00
 Coeff-Com: -0.273D-04 0.765D-04-0.363D-03-0.127D-02 0.689D-02-0.156D-01
 Coeff-Com:  0.373D-01-0.972D-01 0.166D+00 0.760D-01-0.107D+01 0.190D+01
 Coeff:     -0.273D-04 0.765D-04-0.363D-03-0.127D-02 0.689D-02-0.156D-01
 Coeff:      0.373D-01-0.972D-01 0.166D+00 0.760D-01-0.107D+01 0.190D+01
 Gap=     0.217 Goal=   None    Shift=    0.000
 RMSDP=1.53D-05 MaxDP=8.99D-05 DE=-8.45D-08 OVMax= 3.42D-04

 Cycle  13  Pass 1  IDiag  3:
 E= -3.97803914077301     Delta-E=       -0.000000031890 Rises=F Damp=F
 DIIS: error= 1.72D-06 at cycle  13 NSaved=  13.
 NSaved=13 IEnMin=13 EnMin= -3.97803914077301     IErMin=13 ErrMin= 1.72D-06
 ErrMax= 1.72D-06  0.00D+00 EMaxC= 1.00D-01 BMatC= 3.01D-10 BMatP= 1.05D-09
 IDIUse=1 WtCom= 1.00D+00 WtEn= 0.00D+00
 Coeff-Com:  0.526D-05-0.197D-04 0.205D-03 0.346D-03-0.255D-02 0.620D-02
 Coeff-Com: -0.154D-01 0.505D-01-0.138D+00 0.167D+00 0.284D+00-0.132D+01
 Coeff-Com:  0.196D+01
 Coeff:      0.526D-05-0.197D-04 0.205D-03 0.346D-03-0.255D-02 0.620D-02
 Coeff:     -0.154D-01 0.505D-01-0.138D+00 0.167D+00 0.284D+00-0.132D+01
 Coeff:      0.196D+01
 Gap=     0.217 Goal=   None    Shift=    0.000
 RMSDP=8.79D-06 MaxDP=5.03D-05 DE=-3.19D-08 OVMax= 1.98D-04

 Cycle  14  Pass 1  IDiag  3:
 E= -3.97803914955529     Delta-E=       -0.000000008782 Rises=F Damp=F
 DIIS: error= 8.24D-07 at cycle  14 NSaved=  14.
 NSaved=14 IEnMin=14 EnMin= -3.97803914955529     IErMin=14 ErrMin= 8.24D-07
 ErrMax= 8.24D-07  0.00D+00 EMaxC= 1.00D-01 BMatC= 6.84D-11 BMatP= 3.01D-10
 IDIUse=1 WtCom= 1.00D+00 WtEn= 0.00D+00
 Coeff-Com:  0.187D-05-0.354D-05-0.342D-04 0.561D-05 0.790D-04-0.429D-03
 Coeff-Com:  0.171D-02-0.114D-01 0.517D-01-0.120D+00 0.509D-01 0.382D+00
 Coeff-Com: -0.121D+01 0.185D+01
 Coeff:      0.187D-05-0.354D-05-0.342D-04 0.561D-05 0.790D-04-0.429D-03
 Coeff:      0.171D-02-0.114D-01 0.517D-01-0.120D+00 0.509D-01 0.382D+00
 Coeff:     -0.121D+01 0.185D+01
 Gap=     0.217 Goal=   None    Shift=    0.000
 RMSDP=4.07D-06 MaxDP=2.11D-05 DE=-8.78D-09 OVMax= 8.91D-05

 Cycle  15  Pass 1  IDiag  3:
 E= -3.97803915121781     Delta-E=       -0.000000001663 Rises=F Damp=F
 DIIS: error= 3.71D-07 at cycle  15 NSaved=  15.
 NSaved=15 IEnMin=15 EnMin= -3.97803915121781     IErMin=15 ErrMin= 3.71D-07
 ErrMax= 3.71D-07  0.00D+00 EMaxC= 1.00D-01 BMatC= 1.13D-11 BMatP= 6.84D-11
 IDIUse=1 WtCom= 1.00D+00 WtEn= 0.00D+00
 Coeff-Com: -0.153D-05 0.367D-05 0.176D-04-0.283D-04-0.556D-05 0.262D-03
 Coeff-Com: -0.106D-02 0.490D-02-0.201D-01 0.419D-01-0.218D-02-0.153D+00
 Coeff-Com:  0.470D+00-0.105D+01 0.171D+01
 Coeff:     -0.153D-05 0.367D-05 0.176D-04-0.283D-04-0.556D-05 0.262D-03
 Coeff:     -0.106D-02 0.490D-02-0.201D-01 0.419D-01-0.218D-02-0.153D+00
 Coeff:      0.470D+00-0.105D+01 0.171D+01
 Gap=     0.217 Goal=   None    Shift=    0.000
 RMSDP=1.23D-06 MaxDP=5.68D-06 DE=-1.66D-09 OVMax= 2.38D-05

 Cycle  16  Pass 1  IDiag  3:
 E= -3.97803915140844     Delta-E=       -0.000000000191 Rises=F Damp=F
 DIIS: error= 1.28D-07 at cycle  16 NSaved=  16.
 NSaved=16 IEnMin=16 EnMin= -3.97803915140844     IErMin=16 ErrMin= 1.28D-07
 ErrMax= 1.28D-07  0.00D+00 EMaxC= 1.00D-01 BMatC= 1.45D-12 BMatP= 1.13D-11
 IDIUse=1 WtCom= 1.00D+00 WtEn= 0.00D+00
 Coeff-Com: -0.283D-06 0.141D-05-0.129D-04-0.534D-05 0.909D-04-0.290D-03
 Coeff-Com:  0.740D-03-0.215D-02 0.762D-02-0.156D-01-0.228D-02 0.605D-01
 Coeff-Com: -0.157D+00 0.366D+00-0.887D+00 0.163D+01
 Coeff:     -0.283D-06 0.141D-05-0.129D-04-0.534D-05 0.909D-04-0.290D-03
 Coeff:      0.740D-03-0.215D-02 0.762D-02-0.156D-01-0.228D-02 0.605D-01
 Coeff:     -0.157D+00 0.366D+00-0.887D+00 0.163D+01
 Gap=     0.217 Goal=   None    Shift=    0.000
 RMSDP=3.35D-07 MaxDP=2.14D-06 DE=-1.91D-10 OVMax= 5.00D-06

 Cycle  17  Pass 1  IDiag  3:
 E= -3.97803915142862     Delta-E=       -0.000000000020 Rises=F Damp=F
 DIIS: error= 5.04D-08 at cycle  17 NSaved=  17.
 NSaved=17 IEnMin=17 EnMin= -3.97803915142862     IErMin=17 ErrMin= 5.04D-08
 ErrMax= 5.04D-08  0.00D+00 EMaxC= 1.00D-01 BMatC= 1.83D-13 BMatP= 1.45D-12
 IDIUse=1 WtCom= 1.00D+00 WtEn= 0.00D+00
 Coeff-Com: -0.905D-07 0.381D-06 0.279D-05-0.177D-05-0.752D-05 0.600D-04
 Coeff-Com: -0.200D-03 0.638D-03-0.297D-02 0.733D-02 0.665D-04-0.279D-01
 Coeff-Com:  0.742D-01-0.170D+00 0.442D+00-0.108D+01 0.175D+01
 Coeff:     -0.905D-07 0.381D-06 0.279D-05-0.177D-05-0.752D-05 0.600D-04
 Coeff:     -0.200D-03 0.638D-03-0.297D-02 0.733D-02 0.665D-04-0.279D-01
 Coeff:      0.742D-01-0.170D+00 0.442D+00-0.108D+01 0.175D+01
 Gap=     0.217 Goal=   None    Shift=    0.000
 RMSDP=1.14D-07 MaxDP=6.55D-07 DE=-2.02D-11 OVMax= 1.58D-06

 Cycle  18  Pass 1  IDiag  3:
 E= -3.97803915143163     Delta-E=       -0.000000000003 Rises=F Damp=F
 DIIS: error= 1.59D-08 at cycle  18 NSaved=  18.
 NSaved=18 IEnMin=18 EnMin= -3.97803915143163     IErMin=18 ErrMin= 1.59D-08
 ErrMax= 1.59D-08  0.00D+00 EMaxC= 1.00D-01 BMatC= 2.54D-14 BMatP= 1.83D-13
 IDIUse=1 WtCom= 1.00D+00 WtEn= 0.00D+00
 Large coefficients: NSaved= 18 BigCof=    0.00 CofMax=   10.00 Det=-6.46D-15
 Inversion failed.  Reducing to 17 matrices.
 Large coefficients: NSaved= 17 BigCof=    0.00 CofMax=   10.00 Det=-6.47D-15
 Inversion failed.  Reducing to 16 matrices.
 Large coefficients: NSaved= 16 BigCof=    0.00 CofMax=   10.00 Det=-6.48D-15
 Inversion failed.  Reducing to 15 matrices.
 Coeff-Com:  0.268D-05-0.198D-04 0.325D-04-0.393D-04 0.395D-05 0.880D-03
 Coeff-Com: -0.338D-02 0.213D-02 0.794D-02-0.284D-01 0.731D-01-0.197D+00
 Coeff-Com:  0.523D+00-0.117D+01 0.179D+01
 Coeff:      0.268D-05-0.198D-04 0.325D-04-0.393D-04 0.395D-05 0.880D-03
 Coeff:     -0.338D-02 0.213D-02 0.794D-02-0.284D-01 0.731D-01-0.197D+00
 Coeff:      0.523D+00-0.117D+01 0.179D+01
 Gap=     0.217 Goal=   None    Shift=    0.000
 RMSDP=4.76D-08 MaxDP=2.72D-07 DE=-3.01D-12 OVMax= 7.15D-07

 Cycle  19  Pass 1  IDiag  3:
 E= -3.97803915143206     Delta-E=       -0.000000000000 Rises=F Damp=F
 DIIS: error= 7.90D-09 at cycle  19 NSaved=  16.
 NSaved=16 IEnMin=16 EnMin= -3.97803915143206     IErMin=16 ErrMin= 7.90D-09
 ErrMax= 7.90D-09  0.00D+00 EMaxC= 1.00D-01 BMatC= 3.61D-15 BMatP= 2.54D-14
 IDIUse=1 WtCom= 1.00D+00 WtEn= 0.00D+00
 Large coefficients: NSaved= 16 BigCof=    0.00 CofMax=   10.00 Det=-9.23D-16
 Inversion failed.  Reducing to 15 matrices.
 Coeff-Com:  0.504D-05-0.644D-05-0.191D-05 0.278D-04-0.398D-03 0.147D-02
 Coeff-Com: -0.117D-02-0.270D-02 0.114D-01-0.308D-01 0.819D-01-0.222D+00
 Coeff-Com:  0.565D+00-0.121D+01 0.181D+01
 Coeff:      0.504D-05-0.644D-05-0.191D-05 0.278D-04-0.398D-03 0.147D-02
 Coeff:     -0.117D-02-0.270D-02 0.114D-01-0.308D-01 0.819D-01-0.222D+00
 Coeff:      0.565D+00-0.121D+01 0.181D+01
 Gap=     0.217 Goal=   None    Shift=    0.000
 RMSDP=1.81D-08 MaxDP=8.66D-08 DE=-4.26D-13 OVMax= 2.34D-07

 Cycle  20  Pass 1  IDiag  3:
 E= -3.97803915143228     Delta-E=       -0.000000000000 Rises=F Damp=F
 DIIS: error= 3.00D-09 at cycle  20 NSaved=  16.
 NSaved=16 IEnMin=16 EnMin= -3.97803915143228     IErMin=16 ErrMin= 3.00D-09
 ErrMax= 3.00D-09  0.00D+00 EMaxC= 1.00D-01 BMatC= 4.08D-16 BMatP= 3.61D-15
 IDIUse=1 WtCom= 1.00D+00 WtEn= 0.00D+00
 Large coefficients: NSaved= 16 BigCof=    0.00 CofMax=   10.00 Det=-1.61D-16
 Inversion failed.  Reducing to 15 matrices.
 Coeff-Com: -0.113D-05 0.421D-05 0.330D-05-0.154D-04-0.272D-04 0.113D-03
 Coeff-Com: -0.127D-03-0.243D-03 0.159D-02-0.414D-02 0.137D-01-0.573D-01
 Coeff-Com:  0.200D+00-0.626D+00 0.147D+01
 Coeff:     -0.113D-05 0.421D-05 0.330D-05-0.154D-04-0.272D-04 0.113D-03
 Coeff:     -0.127D-03-0.243D-03 0.159D-02-0.414D-02 0.137D-01-0.573D-01
 Coeff:      0.200D+00-0.626D+00 0.147D+01
 Gap=     0.217 Goal=   None    Shift=    0.000
 RMSDP=5.25D-09 MaxDP=3.17D-08 DE=-2.27D-13 OVMax= 5.27D-08

 Cycle  21  Pass 2  IDiag  1:
 SCF Done:  E(RPM6) =  -3.97803915143     A.U. after   21 cycles
            NFock= 20  Conv=0.53D-08     -V/T= 0.9543
 KE=-8.696255546185D+01 PE=-2.690798821631D+02 EE= 1.614261705001D+02
 Leave Link  502 at Fri Jan  7 12:01:49 2022, MaxMem=   402653184 cpu:             137.6 elap:              22.7
 (Enter /work/01114/jfonner/frontera/gaussian/16rC.01/g16/l601.exe)
 Copying SCF densities to generalized density rwf, IOpCl= 0 IROHF=0.

 **********************************************************************

            Population analysis using the SCF Density.

 **********************************************************************

 Alpha  occ. eigenvalues --   -1.36488  -1.34500  -1.25922  -1.24331  -1.10343
 Alpha  occ. eigenvalues --   -1.00712  -0.90949  -0.80202  -0.75489  -0.74169
 Alpha  occ. eigenvalues --   -0.72844  -0.71554  -0.69595  -0.62652  -0.60924
 Alpha  occ. eigenvalues --   -0.57444  -0.56743  -0.53752  -0.52604  -0.48288
 Alpha virt. eigenvalues --   -0.26649  -0.20671  -0.15779  -0.11692  -0.11148
 Alpha virt. eigenvalues --   -0.07780  -0.05750  -0.02975   0.00143   0.00960
 Alpha virt. eigenvalues --    0.02970   0.04619   0.07934   0.09911   0.30846
          Condensed to atoms (all electrons):
               1          2          3          4          5          6
     1  C    3.581384   0.000000   0.000000   0.000000   0.000000   0.000000
     2  O    0.000000   6.423108   0.000000   0.000000   0.000000   0.000000
     3  N    0.000000   0.000000   5.411640   0.000000   0.000000   0.000000
     4  C    0.000000   0.000000   0.000000   3.377521   0.000000   0.000000
     5  C    0.000000   0.000000   0.000000   0.000000   3.626140   0.000000
     6  O    0.000000   0.000000   0.000000   0.000000   0.000000   6.388969
     7  N    0.000000   0.000000   0.000000   0.000000   0.000000   0.000000
     8  C    0.000000   0.000000   0.000000   0.000000   0.000000   0.000000
     9  H    0.000000   0.000000   0.000000   0.000000   0.000000   0.000000
    10  H    0.000000   0.000000   0.000000   0.000000   0.000000   0.000000
    11  H    0.000000   0.000000   0.000000   0.000000   0.000000   0.000000
               7          8          9         10         11
     1  C    0.000000   0.000000   0.000000   0.000000   0.000000
     2  O    0.000000   0.000000   0.000000   0.000000   0.000000
     3  N    0.000000   0.000000   0.000000   0.000000   0.000000
     4  C    0.000000   0.000000   0.000000   0.000000   0.000000
     5  C    0.000000   0.000000   0.000000   0.000000   0.000000
     6  O    0.000000   0.000000   0.000000   0.000000   0.000000
     7  N    5.493299   0.000000   0.000000   0.000000   0.000000
     8  C    0.000000   3.781210   0.000000   0.000000   0.000000
     9  H    0.000000   0.000000   0.742766   0.000000   0.000000
    10  H    0.000000   0.000000   0.000000   0.882249   0.000000
    11  H    0.000000   0.000000   0.000000   0.000000   0.291714
 Mulliken charges:
               1
     1  C    0.418616
     2  O   -0.423108
     3  N   -0.411640
     4  C    0.622479
     5  C    0.373860
     6  O   -0.388969
     7  N   -0.493299
     8  C    0.218790
     9  H    0.257234
    10  H    0.117751
    11  H    0.708286
 Sum of Mulliken charges =   1.00000
 Mulliken charges with hydrogens summed into heavy atoms:
               1
     1  C    0.675850
     2  O   -0.423108
     3  N   -0.411640
     4  C    0.622479
     5  C    0.373860
     6  O   -0.388969
     7  N   -0.493299
     8  C    1.044828
 Charge=              1.0000 electrons
 Dipole moment (field-independent basis, Debye):
    X=             12.7301    Y=             -1.4478    Z=             58.1627  Tot=             59.5571
 N-N= 1.906382279734D+02 E-N=-2.690798821813D+02  KE=-8.696255546185D+01
 Leave Link  601 at Fri Jan  7 12:01:49 2022, MaxMem=   402653184 cpu:               1.9 elap:               0.3
 (Enter /work/01114/jfonner/frontera/gaussian/16rC.01/g16/l9999.exe)

 Test job not archived.
 1\1\GINC-C208-012\SP\RPM6\ZDO\C4H3N2O2(1+)\SA748948\07-Jan-2022\0\\#p 
 int=acc2e=12 pm6 charge nosymm\\Atom number=11\\1,1\C,0,3.91099259,0.2
 5801709,8.22899215\O,0,4.06399693,1.47799802,8.227997\N,0,4.3639906,-0
 .5269912,9.18900777\C,0,5.06699613,0.01999652,10.32599226\C,0,4.271001
 7,0.81698251,11.29599614\O,0,4.35898767,2.03299404,11.3669919\N,0,3.49
 199258,0.10401098,12.0729888\C,0,2.58498638,0.67698929,13.08500481\H,0
 ,3.39884455,-0.23066685,7.42662541\H,0,2.88853974,0.22275811,14.005020
 78\H,0,1.55915044,0.4328467,12.90346961\\Version=ES64L-G16RevC.01\HF=-
 3.9780392\RMSD=5.254e-09\Dipole=-2.4122269,-1.7893704,3.0657769\PG=C01
  [X(C4H3N2O2)]\\@


 DO NOT LET SELFISH MEN OR GREEDY INTERESTS SKIN YOUR COUNTRY OF ITS
 BEAUTY, ITS RICHES, OR ITS ROMANCE. -- THEODORE ROOSEVELT
 Job cpu time:       0 days  0 hours  3 minutes 20.0 seconds.
 Elapsed time:       0 days  0 hours  0 minutes 34.6 seconds.
 File lengths (MBytes):  RWF=      6 Int=      0 D2E=      0 Chk=      2 Scr=      1
 Normal termination of Gaussian 16 at Fri Jan  7 12:01:50 2022.
