 Entering Gaussian System, Link 0=g16
 Input=NCCONCCOCCCNCCOCCCNCCOCCNCCNNCCONCCOCCCNCCOCOCNCCOCOCNCCOCCCNCCOCO_13.gjf
 Output=NCCONCCOCCCNCCOCCCNCCOCCNCCNNCCONCCOCCCNCCOCOCNCCOCOCNCCOCCCNCCOCO_13.log
 Initial command:
 /work/01114/jfonner/frontera/gaussian/16rC.01/g16/l1.exe "/scratch1/08249/sa748948/lsqc/26989325/Gau-47131.inp" -scrdir="/scratch1/08249/sa748948/lsqc/26989325/"
 Entering Link 1 = /work/01114/jfonner/frontera/gaussian/16rC.01/g16/l1.exe PID=     47187.
  
 Copyright (c) 1988-2019, Gaussian, Inc.  All Rights Reserved.
  
 This is part of the Gaussian(R) 16 program.  It is based on
 the Gaussian(R) 09 system (copyright 2009, Gaussian, Inc.),
 the Gaussian(R) 03 system (copyright 2003, Gaussian, Inc.),
 the Gaussian(R) 98 system (copyright 1998, Gaussian, Inc.),
 the Gaussian(R) 94 system (copyright 1995, Gaussian, Inc.),
 the Gaussian 92(TM) system (copyright 1992, Gaussian, Inc.),
 the Gaussian 90(TM) system (copyright 1990, Gaussian, Inc.),
 the Gaussian 88(TM) system (copyright 1988, Gaussian, Inc.),
 the Gaussian 86(TM) system (copyright 1986, Carnegie Mellon
 University), and the Gaussian 82(TM) system (copyright 1983,
 Carnegie Mellon University). Gaussian is a federally registered
 trademark of Gaussian, Inc.
  
 This software contains proprietary and confidential information,
 including trade secrets, belonging to Gaussian, Inc.
  
 This software is provided under written license and may be
 used, copied, transmitted, or stored only in accord with that
 written license.
  
 The following legend is applicable only to US Government
 contracts under FAR:
  
                    RESTRICTED RIGHTS LEGEND
  
 Use, reproduction and disclosure by the US Government is
 subject to restrictions as set forth in subparagraphs (a)
 and (c) of the Commercial Computer Software - Restricted
 Rights clause in FAR 52.227-19.
  
 Gaussian, Inc.
 340 Quinnipiac St., Bldg. 40, Wallingford CT 06492
  
  
 ---------------------------------------------------------------
 Warning -- This program may not be used in any manner that
 competes with the business of Gaussian, Inc. or will provide
 assistance to any competitor of Gaussian, Inc.  The licensee
 of this program is prohibited from giving any competitor of
 Gaussian, Inc. access to this program.  By using this program,
 the user acknowledges that Gaussian, Inc. is engaged in the
 business of creating and licensing software in the field of
 computational chemistry and represents and warrants to the
 licensee that it is not a competitor of Gaussian, Inc. and that
 it will not use this program in any manner prohibited above.
 ---------------------------------------------------------------
  

 Cite this work as:
 Gaussian 16, Revision C.01,
 M. J. Frisch, G. W. Trucks, H. B. Schlegel, G. E. Scuseria, 
 M. A. Robb, J. R. Cheeseman, G. Scalmani, V. Barone, 
 G. A. Petersson, H. Nakatsuji, X. Li, M. Caricato, A. V. Marenich, 
 J. Bloino, B. G. Janesko, R. Gomperts, B. Mennucci, H. P. Hratchian, 
 J. V. Ortiz, A. F. Izmaylov, J. L. Sonnenberg, D. Williams-Young, 
 F. Ding, F. Lipparini, F. Egidi, J. Goings, B. Peng, A. Petrone, 
 T. Henderson, D. Ranasinghe, V. G. Zakrzewski, J. Gao, N. Rega, 
 G. Zheng, W. Liang, M. Hada, M. Ehara, K. Toyota, R. Fukuda, 
 J. Hasegawa, M. Ishida, T. Nakajima, Y. Honda, O. Kitao, H. Nakai, 
 T. Vreven, K. Throssell, J. A. Montgomery, Jr., J. E. Peralta, 
 F. Ogliaro, M. J. Bearpark, J. J. Heyd, E. N. Brothers, K. N. Kudin, 
 V. N. Staroverov, T. A. Keith, R. Kobayashi, J. Normand, 
 K. Raghavachari, A. P. Rendell, J. C. Burant, S. S. Iyengar, 
 J. Tomasi, M. Cossi, J. M. Millam, M. Klene, C. Adamo, R. Cammi, 
 J. W. Ochterski, R. L. Martin, K. Morokuma, O. Farkas, 
 J. B. Foresman, and D. J. Fox, Gaussian, Inc., Wallingford CT, 2019.
 
 ******************************************
 Gaussian 16:  ES64L-G16RevC.01  3-Jul-2019
                 7-Jan-2022 
 ******************************************
 %chk=NCCONCCOCCCNCCOCCCNCCOCCNCCNNCCONCCOCCCNCCOCOCNCCOCOCNCCOCCCNCCOCO_13.chk
 %nproc=56
 Will use up to   56 processors via shared memory.
 %mem=3gb
 ---------------------------------
 #p int=acc2e=12 pm6 charge nosymm
 ---------------------------------
 1/18=10,28=-2,38=1,125=101,172=1/1;
 2/12=2,15=1,17=6,18=5,40=1/2;
 3/5=2,25=1,27=12,41=3900000/1,2,3;
 4/35=1/1;
 5/5=2,35=1,38=5,87=12/2;
 6/7=2,8=2,9=2,10=2,28=1,87=12/1;
 99/5=1,9=1/99;
 Leave Link    1 at Fri Jan  7 12:01:13 2022, MaxMem=   402653184 cpu:               3.0 elap:               0.5
 (Enter /work/01114/jfonner/frontera/gaussian/16rC.01/g16/l101.exe)
 --------------
 Atom number=12
 --------------
 Symbolic Z-matrix:
 Charge =  1 Multiplicity = 1
 c                     0.84002  -0.85401   6.792 
 o                     1.027    -2.022     6.72 
 n                     1.81001   0.00199   7.02301 
 c                     3.191    -0.42899   7.101 
 c                     3.91099   0.25802   8.22899 
 o                     4.064     1.478     8.228 
 n                     4.36399  -0.52699   9.18901 
 c                     5.067     0.02      10.32599 
 c                     3.871    -0.103     5.74799 
 h                    -0.1554   -0.47121   6.70529 
 h                     4.86075  -0.49141   5.62787 
 h                     4.49403   0.59367   11.02421 
 
 ITRead=  0  0  0  0  0  0  0  0  0  0  0  0
 MicOpt= -1 -1 -1 -1 -1 -1 -1 -1 -1 -1 -1 -1
 NAtoms=     12 NQM=       12 NQMF=       0 NMMI=      0 NMMIF=      0
                NMic=       0 NMicF=      0.
                    Isotopes and Nuclear Properties:
 (Nuclear quadrupole moments (NQMom) in fm**2, nuclear magnetic moments (NMagM)
  in nuclear magnetons)

  Atom         1           2           3           4           5           6           7           8           9          10
 IAtWgt=          12          16          14          12          12          16          14          12          12           1
 AtmWgt=  12.0000000  15.9949146  14.0030740  12.0000000  12.0000000  15.9949146  14.0030740  12.0000000  12.0000000   1.0078250
 NucSpn=           0           0           2           0           0           0           2           0           0           1
 AtZEff=  -0.0000000  -0.0000000  -0.0000000  -0.0000000  -0.0000000  -0.0000000  -0.0000000  -0.0000000  -0.0000000  -0.0000000
 NQMom=    0.0000000   0.0000000   2.0440000   0.0000000   0.0000000   0.0000000   2.0440000   0.0000000   0.0000000   0.0000000
 NMagM=    0.0000000   0.0000000   0.4037610   0.0000000   0.0000000   0.0000000   0.4037610   0.0000000   0.0000000   2.7928460
 AtZNuc=   6.0000000   8.0000000   7.0000000   6.0000000   6.0000000   8.0000000   7.0000000   6.0000000   6.0000000   1.0000000

  Atom        11          12
 IAtWgt=           1           1
 AtmWgt=   1.0078250   1.0078250
 NucSpn=           1           1
 AtZEff=  -0.0000000  -0.0000000
 NQMom=    0.0000000   0.0000000
 NMagM=    2.7928460   2.7928460
 AtZNuc=   1.0000000   1.0000000
 Background charge distribution read from input stream:
 Point Charges:
 XYZ=   -6.8150   -0.6680    1.6070 Q=    0.1840 A=    0.0000 R=    0.0000 C=    0.0000
 XYZ=   -5.7140    0.0020    2.3730 Q=    0.1690 A=    0.0000 R=    0.0000 C=    0.0000
 XYZ=   -4.3570   -0.6730    2.5880 Q=    0.1957 A=    0.0000 R=    0.0000 C=    0.0000
 XYZ=   -4.2120   -1.8700    2.4920 Q=   -0.4612 A=    0.0000 R=    0.0000 C=    0.0000
 XYZ=   -3.3810    0.1250    2.9530 Q=   -0.3003 A=    0.0000 R=    0.0000 C=    0.0000
 XYZ=   -2.0620   -0.3900    3.2740 Q=    0.2639 A=    0.0000 R=    0.0000 C=    0.0000
 XYZ=   -1.6360    0.1750    4.6000 Q=    0.1489 A=    0.0000 R=    0.0000 C=    0.0000
 XYZ=   -1.7440    1.3560    4.8620 Q=   -0.3095 A=    0.0000 R=    0.0000 C=    0.0000
 XYZ=   -0.9930   -0.0450    2.1970 Q=   -1.2213 A=    0.0000 R=    0.0000 C=    0.0000
 XYZ=    0.3900   -0.4880    2.6400 Q=    0.9359 A=    0.0000 R=    0.0000 C=    0.0000
 XYZ=   -1.3780   -0.6620    0.8970 Q=    0.8742 A=    0.0000 R=    0.0000 C=    0.0000
 XYZ=   -1.0950   -0.7000    5.4150 Q=   -0.4278 A=    0.0000 R=    0.0000 C=    0.0000
 XYZ=   -0.5720   -0.3110    6.6690 Q=    0.2444 A=    0.0000 R=    0.0000 C=    0.0000
 XYZ=   -1.4110   -0.9130    7.7970 Q=   -1.2094 A=    0.0000 R=    0.0000 C=    0.0000
 XYZ=   -0.7270   -0.6450    9.1230 Q=    0.9838 A=    0.0000 R=    0.0000 C=    0.0000
 XYZ=   -2.8000   -0.3490    7.7890 Q=    0.9737 A=    0.0000 R=    0.0000 C=    0.0000
 XYZ=    5.2470   -0.6430    5.5810 Q=   -0.4177 A=    0.0000 R=    0.0000 C=    0.0000
 XYZ=    5.8610   -0.6890    4.3530 Q=   -0.2968 A=    0.0000 R=    0.0000 C=    0.0000
 XYZ=    6.1080   -1.1970    6.4480 Q=    0.2630 A=    0.0000 R=    0.0000 C=    0.0000
 XYZ=    7.0590   -1.2270    4.4820 Q=    0.6103 A=    0.0000 R=    0.0000 C=    0.0000
 XYZ=    7.2390   -1.5230    5.7510 Q=   -0.3347 A=    0.0000 R=    0.0000 C=    0.0000
 XYZ=    4.2710    0.8170   11.2960 Q=    0.1621 A=    0.0000 R=    0.0000 C=    0.0000
 XYZ=    4.3590    2.0330   11.3670 Q=   -0.2980 A=    0.0000 R=    0.0000 C=    0.0000
 XYZ=    3.4920    0.1040   12.0730 Q=   -0.4667 A=    0.0000 R=    0.0000 C=    0.0000
 XYZ=    2.5850    0.6770   13.0850 Q=    0.2746 A=    0.0000 R=    0.0000 C=    0.0000
 XYZ=    3.0060    0.0470   14.3610 Q=    0.2391 A=    0.0000 R=    0.0000 C=    0.0000
 XYZ=    2.9580   -1.1690   14.5150 Q=   -0.4626 A=    0.0000 R=    0.0000 C=    0.0000
 XYZ=    1.1270    0.3300   12.8270 Q=   -1.2217 A=    0.0000 R=    0.0000 C=    0.0000
 XYZ=    0.2480    0.6750   14.0380 Q=    0.9822 A=    0.0000 R=    0.0000 C=    0.0000
 XYZ=    0.6740    1.0470   11.5960 Q=    0.9278 A=    0.0000 R=    0.0000 C=    0.0000
 XYZ=    3.4810    0.8870   15.2620 Q=   -0.6284 A=    0.0000 R=    0.0000 C=    0.0000
 XYZ=    4.1630    0.3920   16.4420 Q=    0.1821 A=    0.0000 R=    0.0000 C=    0.0000
 XYZ=    3.4240    0.9650   17.6310 Q=    0.3166 A=    0.0000 R=    0.0000 C=    0.0000
 XYZ=    3.1360    2.1100   17.6120 Q=   -0.5694 A=    0.0000 R=    0.0000 C=    0.0000
 XYZ=    5.6880    0.7500   16.3890 Q=   -0.3175 A=    0.0000 R=    0.0000 C=    0.0000
 XYZ=    6.2640    0.1300   15.2360 Q=   -0.3082 A=    0.0000 R=    0.0000 C=    0.0000
 XYZ=    6.4200    0.2100   17.5690 Q=    0.9463 A=    0.0000 R=    0.0000 C=    0.0000
 XYZ=    3.1730    0.1290   18.6470 Q=   -0.5421 A=    0.0000 R=    0.0000 C=    0.0000
 XYZ=    2.5590    0.5160   19.9030 Q=    0.0236 A=    0.0000 R=    0.0000 C=    0.0000
 XYZ=    3.3500   -0.1220   21.0140 Q=    0.1847 A=    0.0000 R=    0.0000 C=    0.0000
 XYZ=    3.3660   -1.3390   21.1400 Q=   -0.4163 A=    0.0000 R=    0.0000 C=    0.0000
 XYZ=    1.1380   -0.0210   19.9830 Q=   -0.2907 A=    0.0000 R=    0.0000 C=    0.0000
 XYZ=    0.3930    0.3940   18.8240 Q=   -0.3415 A=    0.0000 R=    0.0000 C=    0.0000
 XYZ=    0.4860    0.5010   21.1670 Q=    0.7765 A=    0.0000 R=    0.0000 C=    0.0000
 XYZ=    4.0670    0.6880   21.7680 Q=   -0.6191 A=    0.0000 R=    0.0000 C=    0.0000
 XYZ=    4.8880    0.2050   22.8510 Q=    0.2833 A=    0.0000 R=    0.0000 C=    0.0000
 XYZ=    4.3500    0.7690   24.1740 Q=    0.1730 A=    0.0000 R=    0.0000 C=    0.0000
 XYZ=    4.1610    1.9810   24.2690 Q=   -0.2861 A=    0.0000 R=    0.0000 C=    0.0000
 XYZ=    6.3620    0.6140   22.6520 Q=   -1.1933 A=    0.0000 R=    0.0000 C=    0.0000
 XYZ=    7.1520    0.2970   23.8740 Q=    0.8585 A=    0.0000 R=    0.0000 C=    0.0000
 XYZ=    6.9530   -0.1210   21.4550 Q=    0.9590 A=    0.0000 R=    0.0000 C=    0.0000
 XYZ=    4.0650   -0.1200   25.1510 Q=   -0.4907 A=    0.0000 R=    0.0000 C=    0.0000
 XYZ=    3.7200    0.3130   26.5150 Q=   -0.3576 A=    0.0000 R=    0.0000 C=    0.0000
 XYZ=    4.9410    0.1400   27.4200 Q=    0.0549 A=    0.0000 R=    0.0000 C=    0.0000
 XYZ=    5.7140   -0.8090   27.2870 Q=   -0.0565 A=    0.0000 R=    0.0000 C=    0.0000
 XYZ=    2.4990   -0.4220   27.0620 Q=    1.1023 A=    0.0000 R=    0.0000 C=    0.0000
 XYZ=    5.2500    0.9550   28.2940 Q=    0.3115 A=    0.0000 R=    0.0000 C=    0.0000
 Pt Chg Charge=              0.7599 electrons
 Pt Chg Dipole moment (Debye):
    X=            -10.4771    Y=             -7.0743    Z=             64.8181  Tot=             66.0394
 Pt Chg Quadrupole moment (Debye-Ang):
   XX=            215.9446   YY=            -32.8704   ZZ=           2274.9880
   XY=            -52.9715   XZ=            175.1746   YZ=           -120.1148
 Pt Chg Traceless Quadrupole moment (Debye-Ang):
   XX=           -603.4094   YY=           -852.2245   ZZ=           1455.6339
   XY=            -52.9715   XZ=            175.1746   YZ=           -120.1148
 Pt Chg Octapole moment (Debye-Ang**2):
  XXX=           1471.6153  YYY=            -23.4462  ZZZ=          72841.0958  XYY=            -70.9976
  XXY=           -221.9746  XXZ=           4408.1189  XZZ=           9424.7075  YZZ=          -2894.1253
  YYZ=           -490.7370  XYZ=           -833.6559
 Pt Chg Hexadecapole moment (Debye-Ang**3):
 XXXX=          18770.5209 YYYY=           -138.5492 ZZZZ=        2208731.6305 XXXY=          -1246.8629
 XXXZ=          40064.0628 YYYX=           -213.6636 YYYZ=           -589.1801 ZZZX=         310713.4839
 ZZZY=         -67721.7888 XXYY=           -525.8522 XXZZ=         109628.8579 YYZZ=          -8658.4774
 XXYZ=          -3589.6681 YYXZ=          -1844.1418 ZZXY=         -15485.2142
 Leave Link  101 at Fri Jan  7 12:01:15 2022, MaxMem=   402653184 cpu:               9.6 elap:               1.9
 (Enter /work/01114/jfonner/frontera/gaussian/16rC.01/g16/l202.exe)
                          Input orientation:                          
 ---------------------------------------------------------------------
 Center     Atomic      Atomic             Coordinates (Angstroms)
 Number     Number       Type             X           Y           Z
 ---------------------------------------------------------------------
      1          6           0        0.840016   -0.854009    6.792003
      2          8           0        1.026999   -2.022001    6.720002
      3          7           0        1.810007    0.001989    7.023006
      4          6           0        3.190996   -0.428993    7.100995
      5          6           0        3.910993    0.258017    8.228992
      6          8           0        4.063997    1.477998    8.227997
      7          7           0        4.363991   -0.526991    9.189008
      8          6           0        5.066996    0.019997   10.325992
      9          6           0        3.870996   -0.102998    5.747994
     10          1           0       -0.155397   -0.471212    6.705289
     11          1           0        4.860745   -0.491413    5.627873
     12          1           0        4.494033    0.593674   11.024209
 ---------------------------------------------------------------------
                    Distance matrix (angstroms):
                    1          2          3          4          5
     1  C    0.000000
     2  O    1.185054   0.000000
     3  N    1.314145   2.191222   0.000000
     4  C    2.408987   2.713985   1.448778   0.000000
     5  C    3.568254   3.974035   2.435999   1.504246   0.000000
     6  O    4.230176   4.873131   2.951453   2.380941   1.229538
     7  N    4.274456   4.412092   3.390312   2.396939   1.320256
     8  C    5.578560   5.787443   4.638752   3.757869   2.406327
     9  C    3.292538   3.565907   2.425768   1.548962   2.507445
    10  H    1.070000   1.950185   2.046382   3.369972   4.403291
    11  H    4.201540   4.270019   3.390700   2.227566   2.868710
    12  H    5.775742   6.114596   4.854247   4.258563   2.875037
                    6          7          8          9         10
     6  O    0.000000
     7  N    2.243551   0.000000
     8  C    2.744697   1.444350   0.000000
     9  C    2.947408   3.501912   4.733245   0.000000
    10  H    4.890946   5.157212   6.373709   4.154977   0.000000
    11  H    3.357683   3.595791   4.730371   1.070000   5.130587
    12  H    2.964079   2.154244   1.070000   5.358355   6.434614
                   11         12
    11  H    0.000000
    12  H    5.516552   0.000000
 Symmetry turned off by external request.
 Stoichiometry    C5H3N2O2(1+)
 Framework group  C1[X(C5H3N2O2)]
 Deg. of freedom    30
 Full point group                 C1      NOp   1
 Rotational constants (GHZ):           3.2673268           1.0268091           0.9223567
 Leave Link  202 at Fri Jan  7 12:01:16 2022, MaxMem=   402653184 cpu:               3.3 elap:               0.9
 (Enter /work/01114/jfonner/frontera/gaussian/16rC.01/g16/l301.exe)
 Standard basis: VSTO-6G (5D, 7F)
 Ernie: Thresh=  0.10000D-02 Tol=  0.10000D-05 Strict=F.
  NNHCO=     0 NNPyr=     0 NCTC=     0               EPep=         0.000000000
    EC=       164.939040551  ECS=         2.892621323   EG=         0.233662617
   EHC=         0.001159487  EAt=       -56.370011934  AtH=         2.160722755
 EPDDG=         0.000000000  ECC=       168.066483977 EAtT=        58.530734688
    39 basis functions,   234 primitive gaussians,    39 cartesian basis functions
    22 alpha electrons       22 beta electrons
       nuclear repulsion energy       226.5972186658 Hartrees.
 IExCor=    0 DFT=F Ex=HF Corr=None ExCW=0 ScaHFX=  1.000000
 ScaDFX=  1.000000  1.000000  1.000000  1.000000 ScalE2=  1.000000  1.000000
 IRadAn=      5 IRanWt=     -1 IRanGd=            0 ICorTp=0 IEmpDi=  4
 Integral buffers will be    131072 words long.
 Regular integral format.
 Two-electron integral symmetry is turned off.
 Background charge distribution read from rwf.
 PtFMM for NChg=        69 BoxLen=    40.00 Levels= 1 LMax=20 SMax=    51.8 ICnFMM=     1:
 Self energy of the charges =        -3.6486361363 a.u.
 MM   energy of the charges =         0.0000000000 a.u.
 Nuclei-charges interaction =        -0.6662371211 a.u.
 Nuclear repulsion after external point charges =      222.2823454083 Hartrees.
 Leave Link  301 at Fri Jan  7 12:01:18 2022, MaxMem=   402653184 cpu:               6.0 elap:               1.4
 (Enter /work/01114/jfonner/frontera/gaussian/16rC.01/g16/l302.exe)
 Do NDO integrals.
 NPDir=0 NMtPBC=     1 NCelOv=     1 NCel=       1 NClECP=     1 NCelD=      1
         NCelK=      1 NCelE2=     1 NClLst=     1 CellRange=     0.0.
 One-electron integrals computed using PRISM.
 NBasis=    39 RedAO= F EigKep=  0.00D+00  NBF=    39
 NBsUse=    39 1.00D-04 EigRej=  0.00D+00 NBFU=    39
 Leave Link  302 at Fri Jan  7 12:01:21 2022, MaxMem=   402653184 cpu:              21.4 elap:               3.7
 (Enter /work/01114/jfonner/frontera/gaussian/16rC.01/g16/l303.exe)
 DipDrv:  MaxL=1.
 Leave Link  303 at Fri Jan  7 12:01:22 2022, MaxMem=   402653184 cpu:               4.2 elap:               0.9
 (Enter /work/01114/jfonner/frontera/gaussian/16rC.01/g16/l401.exe)
 Simple Huckel Guess.
 JPrj=0 DoOrth=F DoCkMO=F.
 Leave Link  401 at Fri Jan  7 12:01:24 2022, MaxMem=   402653184 cpu:               9.8 elap:               1.9
 (Enter /work/01114/jfonner/frontera/gaussian/16rC.01/g16/l502.exe)
 Keep J ints in memory in canonical form, NReq=863985.
 FoFCou: FMM=F IPFlag=           0 FMFlag=           0 FMFlg1=           0
         NFxFlg=           0 DoJE=F BraDBF=F KetDBF=F FulRan=T
         wScrn=  0.000000 ICntrl=       600 IOpCl=  2 I1Cent=           0 NGrid=           0
         NMat0=    1 NMatS0=     93 NMatT0=    0 NMatD0=    1 NMtDS0=    0 NMtDT0=    0
 Symmetry not used in FoFCou.
 Two-electron integral symmetry not used.
 Closed shell SCF:
 Using DIIS extrapolation, IDIIS=  1040.
 Overlap will be assumed to be unity.
 NGot=   402653184 LenX=   402583726 LenY=   402581764
 Requested convergence on RMS density matrix=1.00D-08 within 128 cycles.
 Requested convergence on MAX density matrix=1.00D-06.
 Requested convergence on             energy=1.00D-06.
 No special actions if energy rises.

 Cycle   1  Pass 1  IDiag  1:
 E= -2.53732954784644    
 DIIS: error= 5.10D-02 at cycle   1 NSaved=   1.
 NSaved= 1 IEnMin= 1 EnMin= -2.53732954784644     IErMin= 1 ErrMin= 5.10D-02
 ErrMax= 5.10D-02  0.00D+00 EMaxC= 1.00D-01 BMatC= 1.34D-01 BMatP= 1.34D-01
 IDIUse=3 WtCom= 4.90D-01 WtEn= 5.10D-01
 Coeff-Com:  0.100D+01
 Coeff-En:   0.100D+01
 Coeff:      0.100D+01
 GapD=    2.000 DampG=2.000 DampE=0.500 DampFc=1.0000 IDamp=-1.
 RMSDP=2.09D-02 MaxDP=1.59D-01              OVMax= 0.00D+00

 Cycle   2  Pass 1  IDiag  1:
 E= -3.04153059632881     Delta-E=       -0.504201048482 Rises=F Damp=F
 DIIS: error= 2.32D-02 at cycle   2 NSaved=   2.
 NSaved= 2 IEnMin= 2 EnMin= -3.04153059632881     IErMin= 2 ErrMin= 2.32D-02
 ErrMax= 2.32D-02  0.00D+00 EMaxC= 1.00D-01 BMatC= 1.95D-02 BMatP= 1.34D-01
 IDIUse=3 WtCom= 7.68D-01 WtEn= 2.32D-01
 Coeff-Com: -0.214D+00 0.121D+01
 Coeff-En:   0.000D+00 0.100D+01
 Coeff:     -0.165D+00 0.116D+01
 RMSDP=8.58D-03 MaxDP=7.11D-02 DE=-5.04D-01 OVMax= 0.00D+00

 Cycle   3  Pass 1  IDiag  1:
 E= -3.11964830822521     Delta-E=       -0.078117711896 Rises=F Damp=F
 DIIS: error= 7.05D-03 at cycle   3 NSaved=   3.
 NSaved= 3 IEnMin= 3 EnMin= -3.11964830822521     IErMin= 3 ErrMin= 7.05D-03
 ErrMax= 7.05D-03  0.00D+00 EMaxC= 1.00D-01 BMatC= 2.47D-03 BMatP= 1.95D-02
 IDIUse=3 WtCom= 9.30D-01 WtEn= 7.05D-02
 Coeff-Com: -0.729D-01-0.694D-01 0.114D+01
 Coeff-En:   0.000D+00 0.000D+00 0.100D+01
 Coeff:     -0.678D-01-0.645D-01 0.113D+01
 RMSDP=4.11D-03 MaxDP=3.00D-02 DE=-7.81D-02 OVMax= 0.00D+00

 Cycle   4  Pass 1  IDiag  3:
 E= -3.13317593125348     Delta-E=       -0.013527623028 Rises=F Damp=F
 DIIS: error= 2.15D-03 at cycle   4 NSaved=   4.
 NSaved= 4 IEnMin= 4 EnMin= -3.13317593125348     IErMin= 4 ErrMin= 2.15D-03
 ErrMax= 2.15D-03  0.00D+00 EMaxC= 1.00D-01 BMatC= 3.44D-04 BMatP= 2.47D-03
 IDIUse=3 WtCom= 9.79D-01 WtEn= 2.15D-02
 Coeff-Com:  0.353D-01-0.920D-01-0.182D+00 0.124D+01
 Coeff-En:   0.000D+00 0.000D+00 0.000D+00 0.100D+01
 Coeff:      0.345D-01-0.900D-01-0.178D+00 0.123D+01
 Gap=     0.153 Goal=   None    Shift=    0.000
 RMSDP=2.19D-03 MaxDP=1.73D-02 DE=-1.35D-02 OVMax= 2.12D-02

 Cycle   5  Pass 1  IDiag  3:
 E= -3.13623969920425     Delta-E=       -0.003063767951 Rises=F Damp=F
 DIIS: error= 1.33D-03 at cycle   5 NSaved=   5.
 NSaved= 5 IEnMin= 5 EnMin= -3.13623969920425     IErMin= 5 ErrMin= 1.33D-03
 ErrMax= 1.33D-03  0.00D+00 EMaxC= 1.00D-01 BMatC= 9.59D-05 BMatP= 3.44D-04
 IDIUse=3 WtCom= 9.87D-01 WtEn= 1.33D-02
 Coeff-Com: -0.136D-01 0.736D-01-0.907D-01-0.574D+00 0.160D+01
 Coeff-En:   0.000D+00 0.000D+00 0.000D+00 0.000D+00 0.100D+01
 Coeff:     -0.134D-01 0.726D-01-0.895D-01-0.566D+00 0.160D+01
 Gap=     0.160 Goal=   None    Shift=    0.000
 RMSDP=1.84D-03 MaxDP=1.63D-02 DE=-3.06D-03 OVMax= 2.11D-02

 Cycle   6  Pass 1  IDiag  3:
 E= -3.13767568441176     Delta-E=       -0.001435985208 Rises=F Damp=F
 DIIS: error= 9.35D-04 at cycle   6 NSaved=   6.
 NSaved= 6 IEnMin= 6 EnMin= -3.13767568441176     IErMin= 6 ErrMin= 9.35D-04
 ErrMax= 9.35D-04  0.00D+00 EMaxC= 1.00D-01 BMatC= 3.28D-05 BMatP= 9.59D-05
 IDIUse=3 WtCom= 9.91D-01 WtEn= 9.35D-03
 Coeff-Com:  0.149D-02-0.281D-01 0.101D+00 0.197D+00-0.142D+01 0.215D+01
 Coeff-En:   0.000D+00 0.000D+00 0.000D+00 0.000D+00 0.000D+00 0.100D+01
 Coeff:      0.148D-02-0.279D-01 0.100D+00 0.195D+00-0.141D+01 0.214D+01
 Gap=     0.162 Goal=   None    Shift=    0.000
 RMSDP=1.78D-03 MaxDP=2.15D-02 DE=-1.44D-03 OVMax= 2.20D-02

 Cycle   7  Pass 1  IDiag  3:
 E= -3.13845568840355     Delta-E=       -0.000780003992 Rises=F Damp=F
 DIIS: error= 7.13D-04 at cycle   7 NSaved=   7.
 NSaved= 7 IEnMin= 7 EnMin= -3.13845568840355     IErMin= 7 ErrMin= 7.13D-04
 ErrMax= 7.13D-04  0.00D+00 EMaxC= 1.00D-01 BMatC= 1.01D-05 BMatP= 3.28D-05
 IDIUse=3 WtCom= 9.93D-01 WtEn= 7.13D-03
 Coeff-Com:  0.136D-02 0.886D-02-0.624D-01-0.353D-01 0.796D+00-0.177D+01
 Coeff-Com:  0.206D+01
 Coeff-En:   0.000D+00 0.000D+00 0.000D+00 0.000D+00 0.000D+00 0.000D+00
 Coeff-En:   0.100D+01
 Coeff:      0.135D-02 0.879D-02-0.619D-01-0.351D-01 0.790D+00-0.175D+01
 Coeff:      0.205D+01
 Gap=     0.163 Goal=   None    Shift=    0.000
 RMSDP=1.13D-03 MaxDP=1.71D-02 DE=-7.80D-04 OVMax= 1.40D-02

 Cycle   8  Pass 1  IDiag  3:
 E= -3.13874502491674     Delta-E=       -0.000289336513 Rises=F Damp=F
 DIIS: error= 5.14D-04 at cycle   8 NSaved=   8.
 NSaved= 8 IEnMin= 8 EnMin= -3.13874502491674     IErMin= 8 ErrMin= 5.14D-04
 ErrMax= 5.14D-04  0.00D+00 EMaxC= 1.00D-01 BMatC= 3.98D-06 BMatP= 1.01D-05
 IDIUse=3 WtCom= 9.95D-01 WtEn= 5.14D-03
 Coeff-Com: -0.102D-02 0.277D-02 0.902D-02-0.262D-01-0.177D+00 0.678D+00
 Coeff-Com: -0.168D+01 0.219D+01
 Coeff-En:   0.000D+00 0.000D+00 0.000D+00 0.000D+00 0.000D+00 0.000D+00
 Coeff-En:   0.000D+00 0.100D+01
 Coeff:     -0.102D-02 0.275D-02 0.897D-02-0.261D-01-0.176D+00 0.674D+00
 Coeff:     -0.167D+01 0.218D+01
 Gap=     0.164 Goal=   None    Shift=    0.000
 RMSDP=9.40D-04 MaxDP=1.52D-02 DE=-2.89D-04 OVMax= 1.22D-02

 Cycle   9  Pass 1  IDiag  3:
 E= -3.13888535666766     Delta-E=       -0.000140331751 Rises=F Damp=F
 DIIS: error= 2.94D-04 at cycle   9 NSaved=   9.
 NSaved= 9 IEnMin= 9 EnMin= -3.13888535666766     IErMin= 9 ErrMin= 2.94D-04
 ErrMax= 2.94D-04  0.00D+00 EMaxC= 1.00D-01 BMatC= 1.19D-06 BMatP= 3.98D-06
 IDIUse=3 WtCom= 9.97D-01 WtEn= 2.94D-03
 Coeff-Com: -0.416D-03 0.497D-03 0.482D-02-0.239D-02-0.450D-01 0.734D-01
 Coeff-Com:  0.312D+00-0.138D+01 0.204D+01
 Coeff-En:   0.000D+00 0.000D+00 0.000D+00 0.000D+00 0.000D+00 0.000D+00
 Coeff-En:   0.000D+00 0.000D+00 0.100D+01
 Coeff:     -0.415D-03 0.496D-03 0.481D-02-0.239D-02-0.448D-01 0.732D-01
 Coeff:      0.311D+00-0.138D+01 0.204D+01
 Gap=     0.165 Goal=   None    Shift=    0.000
 RMSDP=6.37D-04 MaxDP=1.04D-02 DE=-1.40D-04 OVMax= 8.63D-03

 Cycle  10  Pass 1  IDiag  3:
 E= -3.13892873169152     Delta-E=       -0.000043375024 Rises=F Damp=F
 DIIS: error= 1.06D-04 at cycle  10 NSaved=  10.
 NSaved=10 IEnMin=10 EnMin= -3.13892873169152     IErMin=10 ErrMin= 1.06D-04
 ErrMax= 1.06D-04  0.00D+00 EMaxC= 1.00D-01 BMatC= 2.21D-07 BMatP= 1.19D-06
 IDIUse=3 WtCom= 9.99D-01 WtEn= 1.06D-03
 Coeff-Com:  0.675D-04 0.825D-03-0.480D-02-0.878D-02 0.946D-01-0.192D+00
 Coeff-Com:  0.848D-01 0.477D+00-0.124D+01 0.179D+01
 Coeff-En:   0.000D+00 0.000D+00 0.000D+00 0.000D+00 0.000D+00 0.000D+00
 Coeff-En:   0.000D+00 0.000D+00 0.000D+00 0.100D+01
 Coeff:      0.674D-04 0.824D-03-0.479D-02-0.877D-02 0.945D-01-0.192D+00
 Coeff:      0.847D-01 0.476D+00-0.124D+01 0.179D+01
 Gap=     0.165 Goal=   None    Shift=    0.000
 RMSDP=2.05D-04 MaxDP=3.26D-03 DE=-4.34D-05 OVMax= 2.84D-03

 Cycle  11  Pass 1  IDiag  3:
 E= -3.13893411330031     Delta-E=       -0.000005381609 Rises=F Damp=F
 DIIS: error= 2.95D-05 at cycle  11 NSaved=  11.
 NSaved=11 IEnMin=11 EnMin= -3.13893411330031     IErMin=11 ErrMin= 2.95D-05
 ErrMax= 2.95D-05  0.00D+00 EMaxC= 1.00D-01 BMatC= 4.96D-08 BMatP= 2.21D-07
 IDIUse=1 WtCom= 1.00D+00 WtEn= 0.00D+00
 Coeff-Com: -0.108D-03-0.512D-03 0.341D-02 0.268D-02-0.484D-01 0.100D+00
 Coeff-Com: -0.825D-01-0.884D-01 0.412D+00-0.105D+01 0.175D+01
 Coeff:     -0.108D-03-0.512D-03 0.341D-02 0.268D-02-0.484D-01 0.100D+00
 Coeff:     -0.825D-01-0.884D-01 0.412D+00-0.105D+01 0.175D+01
 Gap=     0.165 Goal=   None    Shift=    0.000
 RMSDP=7.10D-05 MaxDP=8.95D-04 DE=-5.38D-06 OVMax= 9.61D-04

 Cycle  12  Pass 1  IDiag  3:
 E= -3.13893512019871     Delta-E=       -0.000001006898 Rises=F Damp=F
 DIIS: error= 1.49D-05 at cycle  12 NSaved=  12.
 NSaved=12 IEnMin=12 EnMin= -3.13893512019871     IErMin=12 ErrMin= 1.49D-05
 ErrMax= 1.49D-05  0.00D+00 EMaxC= 1.00D-01 BMatC= 1.32D-08 BMatP= 4.96D-08
 IDIUse=1 WtCom= 1.00D+00 WtEn= 0.00D+00
 Coeff-Com:  0.572D-04 0.401D-03-0.203D-02-0.244D-02 0.306D-01-0.599D-01
 Coeff-Com:  0.488D-01 0.403D-01-0.205D+00 0.599D+00-0.151D+01 0.206D+01
 Coeff:      0.572D-04 0.401D-03-0.203D-02-0.244D-02 0.306D-01-0.599D-01
 Coeff:      0.488D-01 0.403D-01-0.205D+00 0.599D+00-0.151D+01 0.206D+01
 Gap=     0.165 Goal=   None    Shift=    0.000
 RMSDP=4.03D-05 MaxDP=3.23D-04 DE=-1.01D-06 OVMax= 5.96D-04

 Cycle  13  Pass 1  IDiag  3:
 E= -3.13893543312815     Delta-E=       -0.000000312929 Rises=F Damp=F
 DIIS: error= 7.21D-06 at cycle  13 NSaved=  13.
 NSaved=13 IEnMin=13 EnMin= -3.13893543312815     IErMin=13 ErrMin= 7.21D-06
 ErrMax= 7.21D-06  0.00D+00 EMaxC= 1.00D-01 BMatC= 2.86D-09 BMatP= 1.32D-08
 IDIUse=1 WtCom= 1.00D+00 WtEn= 0.00D+00
 Coeff-Com: -0.219D-04-0.248D-03 0.922D-03 0.151D-02-0.150D-01 0.282D-01
 Coeff-Com: -0.233D-01-0.117D-01 0.766D-01-0.239D+00 0.732D+00-0.154D+01
 Coeff-Com:  0.199D+01
 Coeff:     -0.219D-04-0.248D-03 0.922D-03 0.151D-02-0.150D-01 0.282D-01
 Coeff:     -0.233D-01-0.117D-01 0.766D-01-0.239D+00 0.732D+00-0.154D+01
 Coeff:      0.199D+01
 Gap=     0.165 Goal=   None    Shift=    0.000
 RMSDP=2.15D-05 MaxDP=1.94D-04 DE=-3.13D-07 OVMax= 3.49D-04

 Cycle  14  Pass 1  IDiag  3:
 E= -3.13893550561633     Delta-E=       -0.000000072488 Rises=F Damp=F
 DIIS: error= 3.15D-06 at cycle  14 NSaved=  14.
 NSaved=14 IEnMin=14 EnMin= -3.13893550561633     IErMin=14 ErrMin= 3.15D-06
 ErrMax= 3.15D-06  0.00D+00 EMaxC= 1.00D-01 BMatC= 4.71D-10 BMatP= 2.86D-09
 IDIUse=1 WtCom= 1.00D+00 WtEn= 0.00D+00
 Coeff-Com:  0.228D-04 0.776D-04-0.376D-03-0.233D-03 0.533D-02-0.108D-01
 Coeff-Com:  0.902D-02 0.592D-02-0.323D-01 0.890D-01-0.260D+00 0.604D+00
 Coeff-Com: -0.115D+01 0.174D+01
 Coeff:      0.228D-04 0.776D-04-0.376D-03-0.233D-03 0.533D-02-0.108D-01
 Coeff:      0.902D-02 0.592D-02-0.323D-01 0.890D-01-0.260D+00 0.604D+00
 Coeff:     -0.115D+01 0.174D+01
 Gap=     0.165 Goal=   None    Shift=    0.000
 RMSDP=7.92D-06 MaxDP=7.97D-05 DE=-7.25D-08 OVMax= 1.49D-04

 Cycle  15  Pass 1  IDiag  3:
 E= -3.13893551618955     Delta-E=       -0.000000010573 Rises=F Damp=F
 DIIS: error= 1.45D-06 at cycle  15 NSaved=  15.
 NSaved=15 IEnMin=15 EnMin= -3.13893551618955     IErMin=15 ErrMin= 1.45D-06
 ErrMax= 1.45D-06  0.00D+00 EMaxC= 1.00D-01 BMatC= 9.24D-11 BMatP= 4.71D-10
 IDIUse=1 WtCom= 1.00D+00 WtEn= 0.00D+00
 Coeff-Com: -0.498D-05-0.296D-04 0.699D-04 0.824D-04-0.114D-02 0.190D-02
 Coeff-Com: -0.108D-02-0.113D-02 0.426D-02-0.121D-01 0.397D-01-0.113D+00
 Coeff-Com:  0.311D+00-0.916D+00 0.169D+01
 Coeff:     -0.498D-05-0.296D-04 0.699D-04 0.824D-04-0.114D-02 0.190D-02
 Coeff:     -0.108D-02-0.113D-02 0.426D-02-0.121D-01 0.397D-01-0.113D+00
 Coeff:      0.311D+00-0.916D+00 0.169D+01
 Gap=     0.165 Goal=   None    Shift=    0.000
 RMSDP=3.04D-06 MaxDP=3.35D-05 DE=-1.06D-08 OVMax= 6.12D-05

 Cycle  16  Pass 1  IDiag  3:
 E= -3.13893551808039     Delta-E=       -0.000000001891 Rises=F Damp=F
 DIIS: error= 6.04D-07 at cycle  16 NSaved=  16.
 NSaved=16 IEnMin=16 EnMin= -3.13893551808039     IErMin=16 ErrMin= 6.04D-07
 ErrMax= 6.04D-07  0.00D+00 EMaxC= 1.00D-01 BMatC= 2.04D-11 BMatP= 9.24D-11
 IDIUse=1 WtCom= 1.00D+00 WtEn= 0.00D+00
 Coeff-Com:  0.963D-06 0.127D-04-0.117D-04-0.366D-04 0.287D-03-0.284D-03
 Coeff-Com: -0.332D-03 0.802D-03-0.430D-03-0.931D-03 0.294D-02 0.615D-02
 Coeff-Com: -0.631D-01 0.341D+00-0.111D+01 0.182D+01
 Coeff:      0.963D-06 0.127D-04-0.117D-04-0.366D-04 0.287D-03-0.284D-03
 Coeff:     -0.332D-03 0.802D-03-0.430D-03-0.931D-03 0.294D-02 0.615D-02
 Coeff:     -0.631D-01 0.341D+00-0.111D+01 0.182D+01
 Gap=     0.165 Goal=   None    Shift=    0.000
 RMSDP=1.36D-06 MaxDP=1.33D-05 DE=-1.89D-09 OVMax= 2.40D-05

 Cycle  17  Pass 1  IDiag  3:
 E= -3.13893551848858     Delta-E=       -0.000000000408 Rises=F Damp=F
 DIIS: error= 2.46D-07 at cycle  17 NSaved=  17.
 NSaved=17 IEnMin=17 EnMin= -3.13893551848858     IErMin=17 ErrMin= 2.46D-07
 ErrMax= 2.46D-07  0.00D+00 EMaxC= 1.00D-01 BMatC= 3.81D-12 BMatP= 2.04D-11
 IDIUse=1 WtCom= 1.00D+00 WtEn= 0.00D+00
 Coeff-Com: -0.283D-06 0.610D-07-0.139D-04-0.195D-04 0.169D-03-0.409D-03
 Coeff-Com:  0.533D-03 0.718D-05-0.127D-02 0.436D-02-0.118D-01 0.167D-01
 Coeff-Com: -0.571D-02-0.726D-01 0.362D+00-0.107D+01 0.178D+01
 Coeff:     -0.283D-06 0.610D-07-0.139D-04-0.195D-04 0.169D-03-0.409D-03
 Coeff:      0.533D-03 0.718D-05-0.127D-02 0.436D-02-0.118D-01 0.167D-01
 Coeff:     -0.571D-02-0.726D-01 0.362D+00-0.107D+01 0.178D+01
 Gap=     0.165 Goal=   None    Shift=    0.000
 RMSDP=6.23D-07 MaxDP=5.25D-06 DE=-4.08D-10 OVMax= 9.09D-06

 Cycle  18  Pass 1  IDiag  3:
 E= -3.13893551856205     Delta-E=       -0.000000000073 Rises=F Damp=F
 DIIS: error= 1.09D-07 at cycle  18 NSaved=  18.
 NSaved=18 IEnMin=18 EnMin= -3.13893551856205     IErMin=18 ErrMin= 1.09D-07
 ErrMax= 1.09D-07  0.00D+00 EMaxC= 1.00D-01 BMatC= 4.90D-13 BMatP= 3.81D-12
 IDIUse=1 WtCom= 1.00D+00 WtEn= 0.00D+00
 Coeff-Com:  0.311D-07-0.565D-06 0.878D-05 0.127D-04-0.116D-03 0.256D-03
 Coeff-Com: -0.316D-03 0.695D-04 0.541D-03-0.192D-02 0.537D-02-0.780D-02
 Coeff-Com:  0.456D-02 0.190D-01-0.108D+00 0.382D+00-0.969D+00 0.168D+01
 Coeff:      0.311D-07-0.565D-06 0.878D-05 0.127D-04-0.116D-03 0.256D-03
 Coeff:     -0.316D-03 0.695D-04 0.541D-03-0.192D-02 0.537D-02-0.780D-02
 Coeff:      0.456D-02 0.190D-01-0.108D+00 0.382D+00-0.969D+00 0.168D+01
 Gap=     0.165 Goal=   None    Shift=    0.000
 RMSDP=1.95D-07 MaxDP=1.28D-06 DE=-7.35D-11 OVMax= 2.16D-06

 Cycle  19  Pass 1  IDiag  3:
 E= -3.13893551856989     Delta-E=       -0.000000000008 Rises=F Damp=F
 DIIS: error= 4.10D-08 at cycle  19 NSaved=  19.
 NSaved=19 IEnMin=19 EnMin= -3.13893551856989     IErMin=19 ErrMin= 4.10D-08
 ErrMax= 4.10D-08  0.00D+00 EMaxC= 1.00D-01 BMatC= 6.37D-14 BMatP= 4.90D-13
 IDIUse=1 WtCom= 1.00D+00 WtEn= 0.00D+00
 Coeff-Com: -0.687D-07 0.512D-06-0.397D-05-0.111D-04 0.737D-04-0.153D-03
 Coeff-Com:  0.183D-03-0.265D-04-0.339D-03 0.112D-02-0.305D-02 0.470D-02
 Coeff-Com: -0.415D-02-0.476D-02 0.409D-01-0.158D+00 0.442D+00-0.103D+01
 Coeff-Com:  0.171D+01
 Coeff:     -0.687D-07 0.512D-06-0.397D-05-0.111D-04 0.737D-04-0.153D-03
 Coeff:      0.183D-03-0.265D-04-0.339D-03 0.112D-02-0.305D-02 0.470D-02
 Coeff:     -0.415D-02-0.476D-02 0.409D-01-0.158D+00 0.442D+00-0.103D+01
 Coeff:      0.171D+01
 Gap=     0.165 Goal=   None    Shift=    0.000
 RMSDP=6.27D-08 MaxDP=5.39D-07 DE=-7.84D-12 OVMax= 6.44D-07

 Cycle  20  Pass 1  IDiag  3:
 E= -3.13893551857083     Delta-E=       -0.000000000001 Rises=F Damp=F
 DIIS: error= 1.72D-08 at cycle  20 NSaved=  20.
 NSaved=20 IEnMin=20 EnMin= -3.13893551857083     IErMin=20 ErrMin= 1.72D-08
 ErrMax= 1.72D-08  0.00D+00 EMaxC= 1.00D-01 BMatC= 1.13D-14 BMatP= 6.37D-14
 IDIUse=1 WtCom= 1.00D+00 WtEn= 0.00D+00
 Large coefficients: NSaved= 20 BigCof=    0.00 CofMax=   10.00 Det=-2.43D-15
 Inversion failed.  Reducing to 19 matrices.
 Large coefficients: NSaved= 19 BigCof=    0.00 CofMax=   10.00 Det=-2.44D-15
 Inversion failed.  Reducing to 18 matrices.
 Large coefficients: NSaved= 18 BigCof=    0.00 CofMax=   10.00 Det=-2.48D-15
 Inversion failed.  Reducing to 17 matrices.
 Large coefficients: NSaved= 17 BigCof=    0.00 CofMax=   10.00 Det=-3.60D-15
 Inversion failed.  Reducing to 16 matrices.
 Large coefficients: NSaved= 16 BigCof=    0.00 CofMax=   10.00 Det=-4.71D-15
 Inversion failed.  Reducing to 15 matrices.
 Coeff-Com:  0.494D-05-0.261D-04 0.542D-04-0.598D-04 0.963D-05 0.190D-03
 Coeff-Com: -0.520D-03 0.136D-02-0.290D-02 0.234D-02 0.110D-01-0.659D-01
 Coeff-Com:  0.265D+00-0.868D+00 0.166D+01
 Coeff:      0.494D-05-0.261D-04 0.542D-04-0.598D-04 0.963D-05 0.190D-03
 Coeff:     -0.520D-03 0.136D-02-0.290D-02 0.234D-02 0.110D-01-0.659D-01
 Coeff:      0.265D+00-0.868D+00 0.166D+01
 Gap=     0.165 Goal=   None    Shift=    0.000
 RMSDP=2.60D-08 MaxDP=2.60D-07 DE=-9.38D-13 OVMax= 3.15D-07

 Cycle  21  Pass 1  IDiag  3:
 E= -3.13893551857095     Delta-E=       -0.000000000000 Rises=F Damp=F
 DIIS: error= 7.18D-09 at cycle  21 NSaved=  16.
 NSaved=16 IEnMin=16 EnMin= -3.13893551857095     IErMin=16 ErrMin= 7.18D-09
 ErrMax= 7.18D-09  0.00D+00 EMaxC= 1.00D-01 BMatC= 2.38D-15 BMatP= 1.13D-14
 IDIUse=1 WtCom= 1.00D+00 WtEn= 0.00D+00
 Large coefficients: NSaved= 16 BigCof=    0.00 CofMax=   10.00 Det=-6.31D-16
 Inversion failed.  Reducing to 15 matrices.
 Coeff-Com:  0.678D-05-0.278D-04 0.562D-04-0.945D-04 0.145D-03-0.194D-03
 Coeff-Com: -0.212D-04 0.856D-03-0.175D-02 0.136D-02 0.354D-02-0.407D-01
 Coeff-Com:  0.262D+00-0.103D+01 0.181D+01
 Coeff:      0.678D-05-0.278D-04 0.562D-04-0.945D-04 0.145D-03-0.194D-03
 Coeff:     -0.212D-04 0.856D-03-0.175D-02 0.136D-02 0.354D-02-0.407D-01
 Coeff:      0.262D+00-0.103D+01 0.181D+01
 Gap=     0.165 Goal=   None    Shift=    0.000
 RMSDP=1.39D-08 MaxDP=1.37D-07 DE=-1.14D-13 OVMax= 1.62D-07

 Cycle  22  Pass 1  IDiag  3:
 E= -3.13893551857120     Delta-E=       -0.000000000000 Rises=F Damp=F
 DIIS: error= 2.13D-09 at cycle  22 NSaved=  16.
 NSaved=16 IEnMin=16 EnMin= -3.13893551857120     IErMin=16 ErrMin= 2.13D-09
 ErrMax= 2.13D-09  0.00D+00 EMaxC= 1.00D-01 BMatC= 4.05D-16 BMatP= 2.38D-15
 IDIUse=1 WtCom= 1.00D+00 WtEn= 0.00D+00
 Large coefficients: NSaved= 16 BigCof=    0.00 CofMax=   10.00 Det=-1.21D-16
 Inversion failed.  Reducing to 15 matrices.
 Coeff-Com:  0.264D-05-0.125D-04 0.327D-04-0.741D-04 0.136D-03-0.165D-03
 Coeff-Com:  0.161D-03-0.115D-03-0.909D-03 0.536D-02-0.182D-01 0.272D-01
 Coeff-Com:  0.122D+00-0.624D+00 0.149D+01
 Coeff:      0.264D-05-0.125D-04 0.327D-04-0.741D-04 0.136D-03-0.165D-03
 Coeff:      0.161D-03-0.115D-03-0.909D-03 0.536D-02-0.182D-01 0.272D-01
 Coeff:      0.122D+00-0.624D+00 0.149D+01
 Gap=     0.165 Goal=   None    Shift=    0.000
 RMSDP=4.65D-09 MaxDP=3.94D-08 DE=-2.56D-13 OVMax= 4.69D-08

 Cycle  23  Pass 2  IDiag  1:
 SCF Done:  E(RPM6) =  -3.13893551857     A.U. after   23 cycles
            NFock= 22  Conv=0.47D-08     -V/T= 0.9665
 KE=-9.364043150985D+01 PE=-3.196539762029D+02 EE= 1.878731267859D+02
 Leave Link  502 at Fri Jan  7 12:01:48 2022, MaxMem=   402653184 cpu:             144.0 elap:              23.6
 (Enter /work/01114/jfonner/frontera/gaussian/16rC.01/g16/l601.exe)
 Copying SCF densities to generalized density rwf, IOpCl= 0 IROHF=0.

 **********************************************************************

            Population analysis using the SCF Density.

 **********************************************************************

 Alpha  occ. eigenvalues --   -1.43018  -1.34500  -1.33234  -1.23924  -1.16158
 Alpha  occ. eigenvalues --   -1.07151  -0.95059  -0.93494  -0.85138  -0.81634
 Alpha  occ. eigenvalues --   -0.78522  -0.75584  -0.71934  -0.69661  -0.67090
 Alpha  occ. eigenvalues --   -0.65890  -0.64001  -0.61264  -0.58264  -0.52912
 Alpha  occ. eigenvalues --   -0.50268  -0.48707
 Alpha virt. eigenvalues --   -0.32280  -0.26495  -0.22590  -0.18291  -0.17656
 Alpha virt. eigenvalues --   -0.15025  -0.08405  -0.07582  -0.07036  -0.05237
 Alpha virt. eigenvalues --   -0.04477  -0.04345  -0.03187   0.04319   0.05752
 Alpha virt. eigenvalues --    0.07097   0.15335
          Condensed to atoms (all electrons):
               1          2          3          4          5          6
     1  C    3.479552   0.000000   0.000000   0.000000   0.000000   0.000000
     2  O    0.000000   6.530864   0.000000   0.000000   0.000000   0.000000
     3  N    0.000000   0.000000   5.596961   0.000000   0.000000   0.000000
     4  C    0.000000   0.000000   0.000000   3.920831   0.000000   0.000000
     5  C    0.000000   0.000000   0.000000   0.000000   3.562603   0.000000
     6  O    0.000000   0.000000   0.000000   0.000000   0.000000   6.319792
     7  N    0.000000   0.000000   0.000000   0.000000   0.000000   0.000000
     8  C    0.000000   0.000000   0.000000   0.000000   0.000000   0.000000
     9  C    0.000000   0.000000   0.000000   0.000000   0.000000   0.000000
    10  H    0.000000   0.000000   0.000000   0.000000   0.000000   0.000000
    11  H    0.000000   0.000000   0.000000   0.000000   0.000000   0.000000
    12  H    0.000000   0.000000   0.000000   0.000000   0.000000   0.000000
               7          8          9         10         11         12
     1  C    0.000000   0.000000   0.000000   0.000000   0.000000   0.000000
     2  O    0.000000   0.000000   0.000000   0.000000   0.000000   0.000000
     3  N    0.000000   0.000000   0.000000   0.000000   0.000000   0.000000
     4  C    0.000000   0.000000   0.000000   0.000000   0.000000   0.000000
     5  C    0.000000   0.000000   0.000000   0.000000   0.000000   0.000000
     6  O    0.000000   0.000000   0.000000   0.000000   0.000000   0.000000
     7  N    5.328481   0.000000   0.000000   0.000000   0.000000   0.000000
     8  C    0.000000   3.240870   0.000000   0.000000   0.000000   0.000000
     9  C    0.000000   0.000000   3.741022   0.000000   0.000000   0.000000
    10  H    0.000000   0.000000   0.000000   0.947505   0.000000   0.000000
    11  H    0.000000   0.000000   0.000000   0.000000   0.597811   0.000000
    12  H    0.000000   0.000000   0.000000   0.000000   0.000000   0.733707
 Mulliken charges:
               1
     1  C    0.520448
     2  O   -0.530864
     3  N   -0.596961
     4  C    0.079169
     5  C    0.437397
     6  O   -0.319792
     7  N   -0.328481
     8  C    0.759130
     9  C    0.258978
    10  H    0.052495
    11  H    0.402189
    12  H    0.266293
 Sum of Mulliken charges =   1.00000
 Mulliken charges with hydrogens summed into heavy atoms:
               1
     1  C    0.572943
     2  O   -0.530864
     3  N   -0.596961
     4  C    0.079169
     5  C    0.437397
     6  O   -0.319792
     7  N   -0.328481
     8  C    1.025424
     9  C    0.661166
 Charge=              1.0000 electrons
 Dipole moment (field-independent basis, Debye):
    X=             29.1101    Y=              0.8700    Z=             44.8682  Tot=             53.4912
 N-N= 2.222823454083D+02 E-N=-3.196539762856D+02  KE=-9.364043150985D+01
 Leave Link  601 at Fri Jan  7 12:01:48 2022, MaxMem=   402653184 cpu:               1.7 elap:               0.4
 (Enter /work/01114/jfonner/frontera/gaussian/16rC.01/g16/l9999.exe)

 Test job not archived.
 1\1\GINC-C208-012\SP\RPM6\ZDO\C5H3N2O2(1+)\SA748948\07-Jan-2022\0\\#p 
 int=acc2e=12 pm6 charge nosymm\\Atom number=12\\1,1\C,0,0.84001601,-0.
 85400874,6.79200257\O,0,1.02699873,-2.02200131,6.72000225\N,0,1.810007
 17,0.00198939,7.02300606\C,0,3.19099574,-0.42899304,7.10099501\C,0,3.9
 1099259,0.25801709,8.22899215\O,0,4.06399693,1.47799802,8.227997\N,0,4
 .3639906,-0.5269912,9.18900777\C,0,5.06699613,0.01999652,10.32599226\C
 ,0,3.87099569,-0.10299801,5.74799428\H,0,-0.1553974,-0.47121248,6.7052
 8941\H,0,4.86074533,-0.49141332,5.62787266\H,0,4.49403255,0.59367383,1
 1.02420933\\Version=ES64L-G16RevC.01\HF=-3.1389355\RMSD=4.651e-09\Dipo
 le=5.6519348,0.7911834,3.0852733\PG=C01 [X(C5H3N2O2)]\\@


 THE WISE MAN HAS THE POWER TO REASON AWAY
 WHAT A FOOL BELIEVES.
                     - DOOBIE BROTHERS
 Job cpu time:       0 days  0 hours  3 minutes 26.4 seconds.
 Elapsed time:       0 days  0 hours  0 minutes 35.6 seconds.
 File lengths (MBytes):  RWF=      6 Int=      0 D2E=      0 Chk=      2 Scr=      1
 Normal termination of Gaussian 16 at Fri Jan  7 12:01:49 2022.
