 Entering Gaussian System, Link 0=g16
 Input=NCCONCCOCCCNCCOCCCNCCOCCNCCNNCCONCCOCCCNCCOCOCNCCOCOCNCCOCCCNCCOCO_4.gjf
 Output=NCCONCCOCCCNCCOCCCNCCOCCNCCNNCCONCCOCCCNCCOCOCNCCOCOCNCCOCCCNCCOCO_4.log
 Initial command:
 /work/01114/jfonner/frontera/gaussian/16rC.01/g16/l1.exe "/scratch1/08249/sa748948/lsqc/26989325/Gau-41084.inp" -scrdir="/scratch1/08249/sa748948/lsqc/26989325/"
 Entering Link 1 = /work/01114/jfonner/frontera/gaussian/16rC.01/g16/l1.exe PID=     41094.
  
 Copyright (c) 1988-2019, Gaussian, Inc.  All Rights Reserved.
  
 This is part of the Gaussian(R) 16 program.  It is based on
 the Gaussian(R) 09 system (copyright 2009, Gaussian, Inc.),
 the Gaussian(R) 03 system (copyright 2003, Gaussian, Inc.),
 the Gaussian(R) 98 system (copyright 1998, Gaussian, Inc.),
 the Gaussian(R) 94 system (copyright 1995, Gaussian, Inc.),
 the Gaussian 92(TM) system (copyright 1992, Gaussian, Inc.),
 the Gaussian 90(TM) system (copyright 1990, Gaussian, Inc.),
 the Gaussian 88(TM) system (copyright 1988, Gaussian, Inc.),
 the Gaussian 86(TM) system (copyright 1986, Carnegie Mellon
 University), and the Gaussian 82(TM) system (copyright 1983,
 Carnegie Mellon University). Gaussian is a federally registered
 trademark of Gaussian, Inc.
  
 This software contains proprietary and confidential information,
 including trade secrets, belonging to Gaussian, Inc.
  
 This software is provided under written license and may be
 used, copied, transmitted, or stored only in accord with that
 written license.
  
 The following legend is applicable only to US Government
 contracts under FAR:
  
                    RESTRICTED RIGHTS LEGEND
  
 Use, reproduction and disclosure by the US Government is
 subject to restrictions as set forth in subparagraphs (a)
 and (c) of the Commercial Computer Software - Restricted
 Rights clause in FAR 52.227-19.
  
 Gaussian, Inc.
 340 Quinnipiac St., Bldg. 40, Wallingford CT 06492
  
  
 ---------------------------------------------------------------
 Warning -- This program may not be used in any manner that
 competes with the business of Gaussian, Inc. or will provide
 assistance to any competitor of Gaussian, Inc.  The licensee
 of this program is prohibited from giving any competitor of
 Gaussian, Inc. access to this program.  By using this program,
 the user acknowledges that Gaussian, Inc. is engaged in the
 business of creating and licensing software in the field of
 computational chemistry and represents and warrants to the
 licensee that it is not a competitor of Gaussian, Inc. and that
 it will not use this program in any manner prohibited above.
 ---------------------------------------------------------------
  

 Cite this work as:
 Gaussian 16, Revision C.01,
 M. J. Frisch, G. W. Trucks, H. B. Schlegel, G. E. Scuseria, 
 M. A. Robb, J. R. Cheeseman, G. Scalmani, V. Barone, 
 G. A. Petersson, H. Nakatsuji, X. Li, M. Caricato, A. V. Marenich, 
 J. Bloino, B. G. Janesko, R. Gomperts, B. Mennucci, H. P. Hratchian, 
 J. V. Ortiz, A. F. Izmaylov, J. L. Sonnenberg, D. Williams-Young, 
 F. Ding, F. Lipparini, F. Egidi, J. Goings, B. Peng, A. Petrone, 
 T. Henderson, D. Ranasinghe, V. G. Zakrzewski, J. Gao, N. Rega, 
 G. Zheng, W. Liang, M. Hada, M. Ehara, K. Toyota, R. Fukuda, 
 J. Hasegawa, M. Ishida, T. Nakajima, Y. Honda, O. Kitao, H. Nakai, 
 T. Vreven, K. Throssell, J. A. Montgomery, Jr., J. E. Peralta, 
 F. Ogliaro, M. J. Bearpark, J. J. Heyd, E. N. Brothers, K. N. Kudin, 
 V. N. Staroverov, T. A. Keith, R. Kobayashi, J. Normand, 
 K. Raghavachari, A. P. Rendell, J. C. Burant, S. S. Iyengar, 
 J. Tomasi, M. Cossi, J. M. Millam, M. Klene, C. Adamo, R. Cammi, 
 J. W. Ochterski, R. L. Martin, K. Morokuma, O. Farkas, 
 J. B. Foresman, and D. J. Fox, Gaussian, Inc., Wallingford CT, 2019.
 
 ******************************************
 Gaussian 16:  ES64L-G16RevC.01  3-Jul-2019
                 7-Jan-2022 
 ******************************************
 %chk=NCCONCCOCCCNCCOCCCNCCOCCNCCNNCCONCCOCCCNCCOCOCNCCOCOCNCCOCCCNCCOCO_4.chk
 %nproc=56
 Will use up to   56 processors via shared memory.
 %mem=3gb
 ---------------------------------
 #p int=acc2e=12 pm6 charge nosymm
 ---------------------------------
 1/18=10,28=-2,38=1,125=101,172=1/1;
 2/12=2,15=1,17=6,18=5,40=1/2;
 3/5=2,25=1,27=12,41=3900000/1,2,3;
 4/35=1/1;
 5/5=2,35=1,38=5,87=12/2;
 6/7=2,8=2,9=2,10=2,28=1,87=12/1;
 99/5=1,9=1/99;
 Leave Link    1 at Fri Jan  7 12:00:13 2022, MaxMem=   402653184 cpu:               2.9 elap:               0.5
 (Enter /work/01114/jfonner/frontera/gaussian/16rC.01/g16/l101.exe)
 --------------
 Atom number=17
 --------------
 Symbolic Z-matrix:
 Charge =  1 Multiplicity = 1
 c                     0.84002  -0.85401   6.792 
 o                     1.027    -2.022     6.72 
 n                     1.81001   0.00199   7.02301 
 c                     3.191    -0.42899   7.101 
 c                     3.91099   0.25802   8.22899 
 o                     4.064     1.478     8.228 
 n                     4.36399  -0.52699   9.18901 
 c                     5.067     0.02      10.32599 
 c                     3.871    -0.103     5.74799 
 c                     4.271     0.81698   11.296 
 o                     4.35899   2.03299   11.36699 
 n                     3.49199   0.10401   12.07299 
 c                     2.58499   0.67699   13.085 
 h                    -0.1554   -0.47121   6.70529 
 h                     4.86075  -0.49141   5.62787 
 h                     2.88854   0.22276   14.00502 
 h                     1.55915   0.43285   12.90347 
 
 ITRead=  0  0  0  0  0  0  0  0  0  0  0  0  0  0  0  0  0
 MicOpt= -1 -1 -1 -1 -1 -1 -1 -1 -1 -1 -1 -1 -1 -1 -1 -1 -1
 NAtoms=     17 NQM=       17 NQMF=       0 NMMI=      0 NMMIF=      0
                NMic=       0 NMicF=      0.
                    Isotopes and Nuclear Properties:
 (Nuclear quadrupole moments (NQMom) in fm**2, nuclear magnetic moments (NMagM)
  in nuclear magnetons)

  Atom         1           2           3           4           5           6           7           8           9          10
 IAtWgt=          12          16          14          12          12          16          14          12          12          12
 AtmWgt=  12.0000000  15.9949146  14.0030740  12.0000000  12.0000000  15.9949146  14.0030740  12.0000000  12.0000000  12.0000000
 NucSpn=           0           0           2           0           0           0           2           0           0           0
 AtZEff=  -0.0000000  -0.0000000  -0.0000000  -0.0000000  -0.0000000  -0.0000000  -0.0000000  -0.0000000  -0.0000000  -0.0000000
 NQMom=    0.0000000   0.0000000   2.0440000   0.0000000   0.0000000   0.0000000   2.0440000   0.0000000   0.0000000   0.0000000
 NMagM=    0.0000000   0.0000000   0.4037610   0.0000000   0.0000000   0.0000000   0.4037610   0.0000000   0.0000000   0.0000000
 AtZNuc=   6.0000000   8.0000000   7.0000000   6.0000000   6.0000000   8.0000000   7.0000000   6.0000000   6.0000000   6.0000000

  Atom        11          12          13          14          15          16          17
 IAtWgt=          16          14          12           1           1           1           1
 AtmWgt=  15.9949146  14.0030740  12.0000000   1.0078250   1.0078250   1.0078250   1.0078250
 NucSpn=           0           2           0           1           1           1           1
 AtZEff=  -0.0000000  -0.0000000  -0.0000000  -0.0000000  -0.0000000  -0.0000000  -0.0000000
 NQMom=    0.0000000   2.0440000   0.0000000   0.0000000   0.0000000   0.0000000   0.0000000
 NMagM=    0.0000000   0.4037610   0.0000000   2.7928460   2.7928460   2.7928460   2.7928460
 AtZNuc=   8.0000000   7.0000000   6.0000000   1.0000000   1.0000000   1.0000000   1.0000000
 Background charge distribution read from input stream:
 Point Charges:
 XYZ=   -6.8150   -0.6680    1.6070 Q=    0.1840 A=    0.0000 R=    0.0000 C=    0.0000
 XYZ=   -5.7140    0.0020    2.3730 Q=    0.1690 A=    0.0000 R=    0.0000 C=    0.0000
 XYZ=   -4.3570   -0.6730    2.5880 Q=    0.1957 A=    0.0000 R=    0.0000 C=    0.0000
 XYZ=   -4.2120   -1.8700    2.4920 Q=   -0.4612 A=    0.0000 R=    0.0000 C=    0.0000
 XYZ=   -3.3810    0.1250    2.9530 Q=   -0.3003 A=    0.0000 R=    0.0000 C=    0.0000
 XYZ=   -2.0620   -0.3900    3.2740 Q=    0.2639 A=    0.0000 R=    0.0000 C=    0.0000
 XYZ=   -1.6360    0.1750    4.6000 Q=    0.1489 A=    0.0000 R=    0.0000 C=    0.0000
 XYZ=   -1.7440    1.3560    4.8620 Q=   -0.3095 A=    0.0000 R=    0.0000 C=    0.0000
 XYZ=   -0.9930   -0.0450    2.1970 Q=   -1.2213 A=    0.0000 R=    0.0000 C=    0.0000
 XYZ=    0.3900   -0.4880    2.6400 Q=    0.9359 A=    0.0000 R=    0.0000 C=    0.0000
 XYZ=   -1.3780   -0.6620    0.8970 Q=    0.8742 A=    0.0000 R=    0.0000 C=    0.0000
 XYZ=   -1.0950   -0.7000    5.4150 Q=   -0.4278 A=    0.0000 R=    0.0000 C=    0.0000
 XYZ=   -0.5720   -0.3110    6.6690 Q=    0.2444 A=    0.0000 R=    0.0000 C=    0.0000
 XYZ=   -1.4110   -0.9130    7.7970 Q=   -1.2094 A=    0.0000 R=    0.0000 C=    0.0000
 XYZ=   -0.7270   -0.6450    9.1230 Q=    0.9838 A=    0.0000 R=    0.0000 C=    0.0000
 XYZ=   -2.8000   -0.3490    7.7890 Q=    0.9737 A=    0.0000 R=    0.0000 C=    0.0000
 XYZ=    5.2470   -0.6430    5.5810 Q=   -0.4177 A=    0.0000 R=    0.0000 C=    0.0000
 XYZ=    5.8610   -0.6890    4.3530 Q=   -0.2968 A=    0.0000 R=    0.0000 C=    0.0000
 XYZ=    6.1080   -1.1970    6.4480 Q=    0.2630 A=    0.0000 R=    0.0000 C=    0.0000
 XYZ=    7.0590   -1.2270    4.4820 Q=    0.6103 A=    0.0000 R=    0.0000 C=    0.0000
 XYZ=    7.2390   -1.5230    5.7510 Q=   -0.3347 A=    0.0000 R=    0.0000 C=    0.0000
 XYZ=    3.0060    0.0470   14.3610 Q=    0.2391 A=    0.0000 R=    0.0000 C=    0.0000
 XYZ=    2.9580   -1.1690   14.5150 Q=   -0.4626 A=    0.0000 R=    0.0000 C=    0.0000
 XYZ=    1.1270    0.3300   12.8270 Q=   -1.2217 A=    0.0000 R=    0.0000 C=    0.0000
 XYZ=    0.2480    0.6750   14.0380 Q=    0.9822 A=    0.0000 R=    0.0000 C=    0.0000
 XYZ=    0.6740    1.0470   11.5960 Q=    0.9278 A=    0.0000 R=    0.0000 C=    0.0000
 XYZ=    3.4810    0.8870   15.2620 Q=   -0.6284 A=    0.0000 R=    0.0000 C=    0.0000
 XYZ=    4.1630    0.3920   16.4420 Q=    0.1821 A=    0.0000 R=    0.0000 C=    0.0000
 XYZ=    3.4240    0.9650   17.6310 Q=    0.3166 A=    0.0000 R=    0.0000 C=    0.0000
 XYZ=    3.1360    2.1100   17.6120 Q=   -0.5694 A=    0.0000 R=    0.0000 C=    0.0000
 XYZ=    5.6880    0.7500   16.3890 Q=   -0.3175 A=    0.0000 R=    0.0000 C=    0.0000
 XYZ=    6.2640    0.1300   15.2360 Q=   -0.3082 A=    0.0000 R=    0.0000 C=    0.0000
 XYZ=    6.4200    0.2100   17.5690 Q=    0.9463 A=    0.0000 R=    0.0000 C=    0.0000
 XYZ=    3.1730    0.1290   18.6470 Q=   -0.5421 A=    0.0000 R=    0.0000 C=    0.0000
 XYZ=    2.5590    0.5160   19.9030 Q=    0.0236 A=    0.0000 R=    0.0000 C=    0.0000
 XYZ=    3.3500   -0.1220   21.0140 Q=    0.1847 A=    0.0000 R=    0.0000 C=    0.0000
 XYZ=    3.3660   -1.3390   21.1400 Q=   -0.4163 A=    0.0000 R=    0.0000 C=    0.0000
 XYZ=    1.1380   -0.0210   19.9830 Q=   -0.2907 A=    0.0000 R=    0.0000 C=    0.0000
 XYZ=    0.3930    0.3940   18.8240 Q=   -0.3415 A=    0.0000 R=    0.0000 C=    0.0000
 XYZ=    0.4860    0.5010   21.1670 Q=    0.7765 A=    0.0000 R=    0.0000 C=    0.0000
 XYZ=    4.0670    0.6880   21.7680 Q=   -0.6191 A=    0.0000 R=    0.0000 C=    0.0000
 XYZ=    4.8880    0.2050   22.8510 Q=    0.2833 A=    0.0000 R=    0.0000 C=    0.0000
 XYZ=    4.3500    0.7690   24.1740 Q=    0.1730 A=    0.0000 R=    0.0000 C=    0.0000
 XYZ=    4.1610    1.9810   24.2690 Q=   -0.2861 A=    0.0000 R=    0.0000 C=    0.0000
 XYZ=    6.3620    0.6140   22.6520 Q=   -1.1933 A=    0.0000 R=    0.0000 C=    0.0000
 XYZ=    7.1520    0.2970   23.8740 Q=    0.8585 A=    0.0000 R=    0.0000 C=    0.0000
 XYZ=    6.9530   -0.1210   21.4550 Q=    0.9590 A=    0.0000 R=    0.0000 C=    0.0000
 XYZ=    4.0650   -0.1200   25.1510 Q=   -0.4907 A=    0.0000 R=    0.0000 C=    0.0000
 XYZ=    3.7200    0.3130   26.5150 Q=   -0.3576 A=    0.0000 R=    0.0000 C=    0.0000
 XYZ=    4.9410    0.1400   27.4200 Q=    0.0549 A=    0.0000 R=    0.0000 C=    0.0000
 XYZ=    5.7140   -0.8090   27.2870 Q=   -0.0565 A=    0.0000 R=    0.0000 C=    0.0000
 XYZ=    2.4990   -0.4220   27.0620 Q=    1.1023 A=    0.0000 R=    0.0000 C=    0.0000
 XYZ=    5.2500    0.9550   28.2940 Q=    0.3115 A=    0.0000 R=    0.0000 C=    0.0000
 Pt Chg Charge=              1.0878 electrons
 Pt Chg Dipole moment (Debye):
    X=             -3.1466    Y=             -5.4608    Z=             82.0943  Tot=             82.3359
 Pt Chg Quadrupole moment (Debye-Ang):
   XX=            247.4525   YY=            -28.0553   ZZ=           2461.4493
   XY=            -44.5002   XZ=            258.4063   YZ=           -103.0974
 Pt Chg Traceless Quadrupole moment (Debye-Ang):
   XX=           -646.1630   YY=           -921.6708   ZZ=           1567.8338
   XY=            -44.5002   XZ=            258.4063   YZ=           -103.0974
 Pt Chg Octapole moment (Debye-Ang**2):
  XXX=           1602.1431  YYY=            -12.2522  ZZZ=          74810.3812  XYY=            -48.9118
  XXY=           -181.4207  XXZ=           4771.4346  XZZ=          10363.5484  YZZ=          -2718.2630
  YYZ=           -436.9887  XYZ=           -740.5601
 Pt Chg Hexadecapole moment (Debye-Ang**3):
 XXXX=          19302.4870 YYYY=           -114.7256 ZZZZ=        2228904.7990 XXXY=          -1060.9487
 XXXZ=          41580.3285 YYYX=           -164.1083 YYYZ=           -462.6098 ZZZX=         321218.0792
 ZZZY=         -65955.6408 XXYY=           -426.6869 XXZZ=         113804.9259 YYZZ=          -8060.4858
 XXYZ=          -3136.1109 YYXZ=          -1595.5601 ZZXY=         -14469.7605
 Leave Link  101 at Fri Jan  7 12:00:14 2022, MaxMem=   402653184 cpu:               6.7 elap:               1.2
 (Enter /work/01114/jfonner/frontera/gaussian/16rC.01/g16/l202.exe)
                          Input orientation:                          
 ---------------------------------------------------------------------
 Center     Atomic      Atomic             Coordinates (Angstroms)
 Number     Number       Type             X           Y           Z
 ---------------------------------------------------------------------
      1          6           0        0.840016   -0.854009    6.792003
      2          8           0        1.026999   -2.022001    6.720002
      3          7           0        1.810007    0.001989    7.023006
      4          6           0        3.190996   -0.428993    7.100995
      5          6           0        3.910993    0.258017    8.228992
      6          8           0        4.063997    1.477998    8.227997
      7          7           0        4.363991   -0.526991    9.189008
      8          6           0        5.066996    0.019997   10.325992
      9          6           0        3.870996   -0.102998    5.747994
     10          6           0        4.271002    0.816983   11.295996
     11          8           0        4.358988    2.032994   11.366992
     12          7           0        3.491993    0.104011   12.072989
     13          6           0        2.584986    0.676989   13.085005
     14          1           0       -0.155397   -0.471212    6.705289
     15          1           0        4.860745   -0.491413    5.627873
     16          1           0        2.888540    0.222758   14.005021
     17          1           0        1.559150    0.432847   12.903470
 ---------------------------------------------------------------------
                    Distance matrix (angstroms):
                    1          2          3          4          5
     1  C    0.000000
     2  O    1.185054   0.000000
     3  N    1.314145   2.191222   0.000000
     4  C    2.408987   2.713985   1.448778   0.000000
     5  C    3.568254   3.974035   2.435999   1.504246   0.000000
     6  O    4.230176   4.873131   2.951453   2.380941   1.229538
     7  N    4.274456   4.412092   3.390312   2.396939   1.320256
     8  C    5.578560   5.787443   4.638752   3.757869   2.406327
     9  C    3.292538   3.565907   2.425768   1.548962   2.507445
    10  C    5.903375   6.286740   4.997915   4.507427   3.138242
    11  O    6.453563   7.009968   5.430699   5.062047   3.632944
    12  N    5.986618   6.265029   5.323703   5.009532   3.869831
    13  C    6.707515   7.086969   6.148500   6.115457   5.051207
    14  H    1.070000   1.950185   2.046382   3.369972   4.403291
    15  H    4.201540   4.270019   3.390700   2.227566   2.868710
    16  H    7.575190   7.847023   7.068274   6.941313   5.865932
    17  H    6.286746   6.674184   5.901561   6.088875   5.235692
                    6          7          8          9         10
     6  O    0.000000
     7  N    2.243551   0.000000
     8  C    2.744697   1.444350   0.000000
     9  C    2.947408   3.501912   4.733245   0.000000
    10  C    3.145220   2.500862   1.486506   5.637969   0.000000
    11  O    3.201301   3.361125   2.374261   6.031064   1.221256
    12  N    4.122983   3.078294   2.353655   6.339720   1.311069
    13  C    5.140001   4.448957   3.768841   7.489588   2.462275
    14  H    4.890946   5.157212   6.373709   4.154977   6.505924
    15  H    3.357683   3.595791   4.730371   1.070000   5.846992
    16  H    6.027548   5.092451   4.280425   8.321648   3.098890
    17  H    5.406167   4.752436   4.372507   7.538739   3.175794
                   11         12         13         14         15
    11  O    0.000000
    12  N    2.229594   0.000000
    13  C    2.817339   1.474836   0.000000
    14  H    6.955731   6.515100   7.037673   0.000000
    15  H    6.289824   6.615704   7.883721   5.130587   0.000000
    16  H    3.521132   2.027561   1.070000   7.939347   8.635754
    17  H    3.572160   2.129251   1.070000   6.494185   8.042953
                   16         17
    16  H    0.000000
    17  H    1.739203   0.000000
 Symmetry turned off by external request.
 Stoichiometry    C7H4N3O3(1+)
 Framework group  C1[X(C7H4N3O3)]
 Deg. of freedom    45
 Full point group                 C1      NOp   1
 Rotational constants (GHZ):           1.4117729           0.4292390           0.3692057
 Leave Link  202 at Fri Jan  7 12:00:15 2022, MaxMem=   402653184 cpu:               3.0 elap:               0.5
 (Enter /work/01114/jfonner/frontera/gaussian/16rC.01/g16/l301.exe)
 Standard basis: VSTO-6G (5D, 7F)
 Ernie: Thresh=  0.10000D-02 Tol=  0.10000D-05 Strict=F.
  NNHCO=     0 NNPyr=     0 NCTC=     0               EPep=         0.000000000
    EC=       304.167994528  ECS=         4.235325059   EG=         0.347506333
   EHC=         0.001665273  EAt=       -82.231568766  AtH=         3.063403947
 EPDDG=         0.000000000  ECC=       308.752491193 EAtT=        85.294972712
    56 basis functions,   336 primitive gaussians,    56 cartesian basis functions
    32 alpha electrons       32 beta electrons
       nuclear repulsion energy       394.0474639051 Hartrees.
 IExCor=    0 DFT=F Ex=HF Corr=None ExCW=0 ScaHFX=  1.000000
 ScaDFX=  1.000000  1.000000  1.000000  1.000000 ScalE2=  1.000000  1.000000
 IRadAn=      5 IRanWt=     -1 IRanGd=            0 ICorTp=0 IEmpDi=  4
 Integral buffers will be    131072 words long.
 Regular integral format.
 Two-electron integral symmetry is turned off.
 Background charge distribution read from rwf.
 PtFMM for NChg=        70 BoxLen=    40.00 Levels= 1 LMax=20 SMax=    51.8 ICnFMM=     1:
 Self energy of the charges =        -3.5623988152 a.u.
 MM   energy of the charges =         0.0000000000 a.u.
 Nuclei-charges interaction =        -0.5979532072 a.u.
 Nuclear repulsion after external point charges =      389.8871118827 Hartrees.
 Leave Link  301 at Fri Jan  7 12:00:16 2022, MaxMem=   402653184 cpu:               4.7 elap:               0.8
 (Enter /work/01114/jfonner/frontera/gaussian/16rC.01/g16/l302.exe)
 Do NDO integrals.
 NPDir=0 NMtPBC=     1 NCelOv=     1 NCel=       1 NClECP=     1 NCelD=      1
         NCelK=      1 NCelE2=     1 NClLst=     1 CellRange=     0.0.
 One-electron integrals computed using PRISM.
 NBasis=    56 RedAO= F EigKep=  0.00D+00  NBF=    56
 NBsUse=    56 1.00D-04 EigRej=  0.00D+00 NBFU=    56
 Leave Link  302 at Fri Jan  7 12:00:19 2022, MaxMem=   402653184 cpu:              21.0 elap:               3.7
 (Enter /work/01114/jfonner/frontera/gaussian/16rC.01/g16/l303.exe)
 DipDrv:  MaxL=1.
 Leave Link  303 at Fri Jan  7 12:00:20 2022, MaxMem=   402653184 cpu:               3.3 elap:               0.6
 (Enter /work/01114/jfonner/frontera/gaussian/16rC.01/g16/l401.exe)
 Simple Huckel Guess.
 JPrj=0 DoOrth=F DoCkMO=F.
 Leave Link  401 at Fri Jan  7 12:00:22 2022, MaxMem=   402653184 cpu:              13.3 elap:               2.2
 (Enter /work/01114/jfonner/frontera/gaussian/16rC.01/g16/l502.exe)
 Keep J ints in memory in canonical form, NReq=868926.
 FoFCou: FMM=F IPFlag=           0 FMFlag=           0 FMFlg1=           0
         NFxFlg=           0 DoJE=F BraDBF=F KetDBF=F FulRan=T
         wScrn=  0.000000 ICntrl=       600 IOpCl=  2 I1Cent=           0 NGrid=           0
         NMat0=    1 NMatS0=    134 NMatT0=    0 NMatD0=    1 NMtDS0=    0 NMtDT0=    0
 Symmetry not used in FoFCou.
 Two-electron integral symmetry not used.
 Closed shell SCF:
 Using DIIS extrapolation, IDIIS=  1040.
 Overlap will be assumed to be unity.
 NGot=   402653184 LenX=   402574525 LenY=   402570948
 Requested convergence on RMS density matrix=1.00D-08 within 128 cycles.
 Requested convergence on MAX density matrix=1.00D-06.
 Requested convergence on             energy=1.00D-06.
 No special actions if energy rises.

 Cycle   1  Pass 1  IDiag  1:
 E= -2.63079850192838    
 DIIS: error= 7.86D-02 at cycle   1 NSaved=   1.
 NSaved= 1 IEnMin= 1 EnMin= -2.63079850192838     IErMin= 1 ErrMin= 7.86D-02
 ErrMax= 7.86D-02  0.00D+00 EMaxC= 1.00D-01 BMatC= 2.34D-01 BMatP= 2.34D-01
 IDIUse=3 WtCom= 2.14D-01 WtEn= 7.86D-01
 Coeff-Com:  0.100D+01
 Coeff-En:   0.100D+01
 Coeff:      0.100D+01
 GapD=    2.000 DampG=2.000 DampE=0.500 DampFc=1.0000 IDamp=-1.
 RMSDP=2.00D-02 MaxDP=2.44D-01              OVMax= 0.00D+00

 Cycle   2  Pass 1  IDiag  1:
 E= -3.50345481242942     Delta-E=       -0.872656310501 Rises=F Damp=F
 DIIS: error= 2.87D-02 at cycle   2 NSaved=   2.
 NSaved= 2 IEnMin= 2 EnMin= -3.50345481242942     IErMin= 2 ErrMin= 2.87D-02
 ErrMax= 2.87D-02  0.00D+00 EMaxC= 1.00D-01 BMatC= 3.48D-02 BMatP= 2.34D-01
 IDIUse=3 WtCom= 7.13D-01 WtEn= 2.87D-01
 Coeff-Com: -0.190D+00 0.119D+01
 Coeff-En:   0.000D+00 0.100D+01
 Coeff:     -0.135D+00 0.114D+01
 RMSDP=7.47D-03 MaxDP=7.36D-02 DE=-8.73D-01 OVMax= 0.00D+00

 Cycle   3  Pass 1  IDiag  1:
 E= -3.63393496025674     Delta-E=       -0.130480147827 Rises=F Damp=F
 DIIS: error= 7.18D-03 at cycle   3 NSaved=   3.
 NSaved= 3 IEnMin= 3 EnMin= -3.63393496025674     IErMin= 3 ErrMin= 7.18D-03
 ErrMax= 7.18D-03  0.00D+00 EMaxC= 1.00D-01 BMatC= 4.22D-03 BMatP= 3.48D-02
 IDIUse=3 WtCom= 9.28D-01 WtEn= 7.18D-02
 Coeff-Com: -0.787D-01-0.889D-01 0.117D+01
 Coeff-En:   0.000D+00 0.000D+00 0.100D+01
 Coeff:     -0.731D-01-0.825D-01 0.116D+01
 RMSDP=3.89D-03 MaxDP=3.18D-02 DE=-1.30D-01 OVMax= 0.00D+00

 Cycle   4  Pass 1  IDiag  3:
 E= -3.65814569728292     Delta-E=       -0.024210737026 Rises=F Damp=F
 DIIS: error= 3.20D-03 at cycle   4 NSaved=   4.
 NSaved= 4 IEnMin= 4 EnMin= -3.65814569728292     IErMin= 4 ErrMin= 3.20D-03
 ErrMax= 3.20D-03  0.00D+00 EMaxC= 1.00D-01 BMatC= 5.55D-04 BMatP= 4.22D-03
 IDIUse=3 WtCom= 9.68D-01 WtEn= 3.20D-02
 Coeff-Com:  0.377D-01-0.640D-01-0.297D+00 0.132D+01
 Coeff-En:   0.000D+00 0.000D+00 0.000D+00 0.100D+01
 Coeff:      0.365D-01-0.620D-01-0.288D+00 0.131D+01
 Gap=     0.166 Goal=   None    Shift=    0.000
 RMSDP=2.05D-03 MaxDP=1.81D-02 DE=-2.42D-02 OVMax= 3.60D-02

 Cycle   5  Pass 1  IDiag  3:
 E= -3.66341489170969     Delta-E=       -0.005269194427 Rises=F Damp=F
 DIIS: error= 2.03D-03 at cycle   5 NSaved=   5.
 NSaved= 5 IEnMin= 5 EnMin= -3.66341489170969     IErMin= 5 ErrMin= 2.03D-03
 ErrMax= 2.03D-03  0.00D+00 EMaxC= 1.00D-01 BMatC= 1.42D-04 BMatP= 5.55D-04
 IDIUse=3 WtCom= 9.80D-01 WtEn= 2.03D-02
 Coeff-Com: -0.107D-01 0.480D-01-0.259D-01-0.557D+00 0.155D+01
 Coeff-En:   0.000D+00 0.000D+00 0.000D+00 0.000D+00 0.100D+01
 Coeff:     -0.105D-01 0.470D-01-0.254D-01-0.545D+00 0.153D+01
 Gap=     0.173 Goal=   None    Shift=    0.000
 RMSDP=1.50D-03 MaxDP=1.37D-02 DE=-5.27D-03 OVMax= 3.11D-02

 Cycle   6  Pass 1  IDiag  3:
 E= -3.66548705232719     Delta-E=       -0.002072160618 Rises=F Damp=F
 DIIS: error= 1.05D-03 at cycle   6 NSaved=   6.
 NSaved= 6 IEnMin= 6 EnMin= -3.66548705232719     IErMin= 6 ErrMin= 1.05D-03
 ErrMax= 1.05D-03  0.00D+00 EMaxC= 1.00D-01 BMatC= 4.56D-05 BMatP= 1.42D-04
 IDIUse=3 WtCom= 9.90D-01 WtEn= 1.05D-02
 Coeff-Com: -0.646D-02 0.168D-02 0.855D-01-0.107D+00-0.753D+00 0.178D+01
 Coeff-En:   0.000D+00 0.000D+00 0.000D+00 0.000D+00 0.000D+00 0.100D+01
 Coeff:     -0.639D-02 0.166D-02 0.846D-01-0.106D+00-0.745D+00 0.177D+01
 Gap=     0.173 Goal=   None    Shift=    0.000
 RMSDP=1.27D-03 MaxDP=1.64D-02 DE=-2.07D-03 OVMax= 2.62D-02

 Cycle   7  Pass 1  IDiag  3:
 E= -3.66640603545522     Delta-E=       -0.000918983128 Rises=F Damp=F
 DIIS: error= 6.61D-04 at cycle   7 NSaved=   7.
 NSaved= 7 IEnMin= 7 EnMin= -3.66640603545522     IErMin= 7 ErrMin= 6.61D-04
 ErrMax= 6.61D-04  0.00D+00 EMaxC= 1.00D-01 BMatC= 1.23D-05 BMatP= 4.56D-05
 IDIUse=3 WtCom= 9.93D-01 WtEn= 6.61D-03
 Coeff-Com:  0.334D-02-0.526D-02-0.230D-01 0.969D-01 0.895D-01-0.804D+00
 Coeff-Com:  0.164D+01
 Coeff-En:   0.000D+00 0.000D+00 0.000D+00 0.000D+00 0.000D+00 0.000D+00
 Coeff-En:   0.100D+01
 Coeff:      0.331D-02-0.523D-02-0.228D-01 0.963D-01 0.889D-01-0.798D+00
 Coeff:      0.164D+01
 Gap=     0.174 Goal=   None    Shift=    0.000
 RMSDP=6.61D-04 MaxDP=1.25D-02 DE=-9.19D-04 OVMax= 1.19D-02

 Cycle   8  Pass 1  IDiag  3:
 E= -3.66666213275357     Delta-E=       -0.000256097298 Rises=F Damp=F
 DIIS: error= 5.04D-04 at cycle   8 NSaved=   8.
 NSaved= 8 IEnMin= 8 EnMin= -3.66666213275357     IErMin= 8 ErrMin= 5.04D-04
 ErrMax= 5.04D-04  0.00D+00 EMaxC= 1.00D-01 BMatC= 4.55D-06 BMatP= 1.23D-05
 IDIUse=3 WtCom= 9.95D-01 WtEn= 5.04D-03
 Coeff-Com: -0.843D-04 0.294D-02-0.140D-01-0.174D-01 0.177D+00-0.170D+00
 Coeff-Com: -0.629D+00 0.165D+01
 Coeff-En:   0.000D+00 0.000D+00 0.000D+00 0.000D+00 0.000D+00 0.000D+00
 Coeff-En:   0.000D+00 0.100D+01
 Coeff:     -0.839D-04 0.292D-02-0.139D-01-0.173D-01 0.176D+00-0.169D+00
 Coeff:     -0.625D+00 0.165D+01
 Gap=     0.174 Goal=   None    Shift=    0.000
 RMSDP=4.32D-04 MaxDP=9.71D-03 DE=-2.56D-04 OVMax= 9.01D-03

 Cycle   9  Pass 1  IDiag  3:
 E= -3.66677064785091     Delta-E=       -0.000108515097 Rises=F Damp=F
 DIIS: error= 3.63D-04 at cycle   9 NSaved=   9.
 NSaved= 9 IEnMin= 9 EnMin= -3.66677064785091     IErMin= 9 ErrMin= 3.63D-04
 ErrMax= 3.63D-04  0.00D+00 EMaxC= 1.00D-01 BMatC= 2.00D-06 BMatP= 4.55D-06
 IDIUse=3 WtCom= 9.96D-01 WtEn= 3.63D-03
 Coeff-Com: -0.953D-03 0.175D-02 0.917D-02-0.154D-01-0.130D+00 0.338D+00
 Coeff-Com: -0.103D+00-0.128D+01 0.218D+01
 Coeff-En:   0.000D+00 0.000D+00 0.000D+00 0.000D+00 0.000D+00 0.000D+00
 Coeff-En:   0.000D+00 0.000D+00 0.100D+01
 Coeff:     -0.949D-03 0.174D-02 0.914D-02-0.153D-01-0.129D+00 0.336D+00
 Coeff:     -0.103D+00-0.127D+01 0.218D+01
 Gap=     0.174 Goal=   None    Shift=    0.000
 RMSDP=4.26D-04 MaxDP=1.01D-02 DE=-1.09D-04 OVMax= 9.46D-03

 Cycle  10  Pass 1  IDiag  3:
 E= -3.66683501155200     Delta-E=       -0.000064363701 Rises=F Damp=F
 DIIS: error= 1.91D-04 at cycle  10 NSaved=  10.
 NSaved=10 IEnMin=10 EnMin= -3.66683501155200     IErMin=10 ErrMin= 1.91D-04
 ErrMax= 1.91D-04  0.00D+00 EMaxC= 1.00D-01 BMatC= 6.40D-07 BMatP= 2.00D-06
 IDIUse=3 WtCom= 9.98D-01 WtEn= 1.91D-03
 Coeff-Com: -0.253D-04 0.760D-03-0.261D-02-0.432D-02 0.563D-01-0.119D+00
 Coeff-Com:  0.111D+00 0.305D+00-0.121D+01 0.186D+01
 Coeff-En:   0.000D+00 0.000D+00 0.000D+00 0.000D+00 0.000D+00 0.000D+00
 Coeff-En:   0.000D+00 0.000D+00 0.000D+00 0.100D+01
 Coeff:     -0.253D-04 0.759D-03-0.261D-02-0.431D-02 0.561D-01-0.118D+00
 Coeff:      0.111D+00 0.304D+00-0.121D+01 0.186D+01
 Gap=     0.174 Goal=   None    Shift=    0.000
 RMSDP=2.48D-04 MaxDP=5.90D-03 DE=-6.44D-05 OVMax= 5.54D-03

 Cycle  11  Pass 1  IDiag  3:
 E= -3.66685403850016     Delta-E=       -0.000019026948 Rises=F Damp=F
 DIIS: error= 7.55D-05 at cycle  11 NSaved=  11.
 NSaved=11 IEnMin=11 EnMin= -3.66685403850016     IErMin=11 ErrMin= 7.55D-05
 ErrMax= 7.55D-05  0.00D+00 EMaxC= 1.00D-01 BMatC= 1.74D-07 BMatP= 6.40D-07
 IDIUse=1 WtCom= 1.00D+00 WtEn= 0.00D+00
 Coeff-Com: -0.880D-04-0.656D-04 0.128D-02-0.179D-02-0.692D-02 0.192D-01
 Coeff-Com: -0.487D-01 0.849D-01 0.932D-01-0.841D+00 0.170D+01
 Coeff:     -0.880D-04-0.656D-04 0.128D-02-0.179D-02-0.692D-02 0.192D-01
 Coeff:     -0.487D-01 0.849D-01 0.932D-01-0.841D+00 0.170D+01
 Gap=     0.175 Goal=   None    Shift=    0.000
 RMSDP=1.21D-04 MaxDP=2.76D-03 DE=-1.90D-05 OVMax= 2.60D-03

 Cycle  12  Pass 1  IDiag  3:
 E= -3.66685828257386     Delta-E=       -0.000004244074 Rises=F Damp=F
 DIIS: error= 2.63D-05 at cycle  12 NSaved=  12.
 NSaved=12 IEnMin=12 EnMin= -3.66685828257386     IErMin=12 ErrMin= 2.63D-05
 ErrMax= 2.63D-05  0.00D+00 EMaxC= 1.00D-01 BMatC= 3.77D-08 BMatP= 1.74D-07
 IDIUse=1 WtCom= 1.00D+00 WtEn= 0.00D+00
 Coeff-Com:  0.147D-04-0.341D-04-0.426D-04 0.752D-03-0.294D-03-0.347D-02
 Coeff-Com:  0.128D-01-0.263D-01 0.365D-01 0.702D-01-0.657D+00 0.157D+01
 Coeff:      0.147D-04-0.341D-04-0.426D-04 0.752D-03-0.294D-03-0.347D-02
 Coeff:      0.128D-01-0.263D-01 0.365D-01 0.702D-01-0.657D+00 0.157D+01
 Gap=     0.175 Goal=   None    Shift=    0.000
 RMSDP=4.62D-05 MaxDP=9.27D-04 DE=-4.24D-06 OVMax= 8.63D-04

 Cycle  13  Pass 1  IDiag  3:
 E= -3.66685899923425     Delta-E=       -0.000000716660 Rises=F Damp=F
 DIIS: error= 1.27D-05 at cycle  13 NSaved=  13.
 NSaved=13 IEnMin=13 EnMin= -3.66685899923425     IErMin=13 ErrMin= 1.27D-05
 ErrMax= 1.27D-05  0.00D+00 EMaxC= 1.00D-01 BMatC= 7.78D-09 BMatP= 3.77D-08
 IDIUse=1 WtCom= 1.00D+00 WtEn= 0.00D+00
 Coeff-Com:  0.579D-05-0.178D-04-0.523D-04 0.449D-04-0.556D-03 0.202D-02
 Coeff-Com: -0.535D-02 0.220D-02 0.634D-02-0.721D-02 0.157D+00-0.836D+00
 Coeff-Com:  0.168D+01
 Coeff:      0.579D-05-0.178D-04-0.523D-04 0.449D-04-0.556D-03 0.202D-02
 Coeff:     -0.535D-02 0.220D-02 0.634D-02-0.721D-02 0.157D+00-0.836D+00
 Coeff:      0.168D+01
 Gap=     0.175 Goal=   None    Shift=    0.000
 RMSDP=1.64D-05 MaxDP=2.09D-04 DE=-7.17D-07 OVMax= 3.22D-04

 Cycle  14  Pass 1  IDiag  3:
 E= -3.66685912440909     Delta-E=       -0.000000125175 Rises=F Damp=F
 DIIS: error= 4.84D-06 at cycle  14 NSaved=  14.
 NSaved=14 IEnMin=14 EnMin= -3.66685912440909     IErMin=14 ErrMin= 4.84D-06
 ErrMax= 4.84D-06  0.00D+00 EMaxC= 1.00D-01 BMatC= 1.46D-09 BMatP= 7.78D-09
 IDIUse=1 WtCom= 1.00D+00 WtEn= 0.00D+00
 Coeff-Com: -0.563D-06 0.190D-04-0.501D-04 0.170D-03-0.355D-03 0.230D-03
 Coeff-Com:  0.121D-02-0.408D-03-0.580D-02 0.774D-02-0.412D-01 0.305D+00
 Coeff-Com: -0.104D+01 0.178D+01
 Coeff:     -0.563D-06 0.190D-04-0.501D-04 0.170D-03-0.355D-03 0.230D-03
 Coeff:      0.121D-02-0.408D-03-0.580D-02 0.774D-02-0.412D-01 0.305D+00
 Coeff:     -0.104D+01 0.178D+01
 Gap=     0.175 Goal=   None    Shift=    0.000
 RMSDP=6.58D-06 MaxDP=7.37D-05 DE=-1.25D-07 OVMax= 1.25D-04

 Cycle  15  Pass 1  IDiag  3:
 E= -3.66685914695381     Delta-E=       -0.000000022545 Rises=F Damp=F
 DIIS: error= 1.94D-06 at cycle  15 NSaved=  15.
 NSaved=15 IEnMin=15 EnMin= -3.66685914695381     IErMin=15 ErrMin= 1.94D-06
 ErrMax= 1.94D-06  0.00D+00 EMaxC= 1.00D-01 BMatC= 2.22D-10 BMatP= 1.46D-09
 IDIUse=1 WtCom= 1.00D+00 WtEn= 0.00D+00
 Coeff-Com:  0.463D-05-0.290D-05-0.385D-04 0.705D-04 0.112D-03-0.489D-03
 Coeff-Com:  0.649D-03-0.151D-02 0.342D-02-0.345D-02 0.118D-01-0.825D-01
 Coeff-Com:  0.348D+00-0.930D+00 0.165D+01
 Coeff:      0.463D-05-0.290D-05-0.385D-04 0.705D-04 0.112D-03-0.489D-03
 Coeff:      0.649D-03-0.151D-02 0.342D-02-0.345D-02 0.118D-01-0.825D-01
 Coeff:      0.348D+00-0.930D+00 0.165D+01
 Gap=     0.175 Goal=   None    Shift=    0.000
 RMSDP=2.36D-06 MaxDP=3.37D-05 DE=-2.25D-08 OVMax= 5.78D-05

 Cycle  16  Pass 1  IDiag  3:
 E= -3.66685915047958     Delta-E=       -0.000000003526 Rises=F Damp=F
 DIIS: error= 1.23D-06 at cycle  16 NSaved=  16.
 NSaved=16 IEnMin=16 EnMin= -3.66685915047958     IErMin=16 ErrMin= 1.23D-06
 ErrMax= 1.23D-06  0.00D+00 EMaxC= 1.00D-01 BMatC= 4.71D-11 BMatP= 2.22D-10
 IDIUse=1 WtCom= 1.00D+00 WtEn= 0.00D+00
 Coeff-Com:  0.416D-06-0.435D-05 0.754D-05 0.274D-04-0.155D-03 0.233D-03
 Coeff-Com: -0.139D-03 0.526D-03-0.890D-03-0.782D-03-0.238D-02 0.321D-01
 Coeff-Com: -0.130D+00 0.388D+00-0.109D+01 0.180D+01
 Coeff:      0.416D-06-0.435D-05 0.754D-05 0.274D-04-0.155D-03 0.233D-03
 Coeff:     -0.139D-03 0.526D-03-0.890D-03-0.782D-03-0.238D-02 0.321D-01
 Coeff:     -0.130D+00 0.388D+00-0.109D+01 0.180D+01
 Gap=     0.175 Goal=   None    Shift=    0.000
 RMSDP=1.23D-06 MaxDP=2.03D-05 DE=-3.53D-09 OVMax= 3.62D-05

 Cycle  17  Pass 1  IDiag  3:
 E= -3.66685915137253     Delta-E=       -0.000000000893 Rises=F Damp=F
 DIIS: error= 6.54D-07 at cycle  17 NSaved=  17.
 NSaved=17 IEnMin=17 EnMin= -3.66685915137253     IErMin=17 ErrMin= 6.54D-07
 ErrMax= 6.54D-07  0.00D+00 EMaxC= 1.00D-01 BMatC= 1.17D-11 BMatP= 4.71D-11
 IDIUse=1 WtCom= 1.00D+00 WtEn= 0.00D+00
 Coeff-Com:  0.203D-06 0.156D-05-0.212D-05-0.163D-04 0.124D-03-0.246D-03
 Coeff-Com:  0.194D-03-0.124D-03-0.516D-04 0.868D-03-0.425D-03-0.640D-02
 Coeff-Com:  0.222D-01-0.767D-01 0.344D+00-0.108D+01 0.180D+01
 Coeff:      0.203D-06 0.156D-05-0.212D-05-0.163D-04 0.124D-03-0.246D-03
 Coeff:      0.194D-03-0.124D-03-0.516D-04 0.868D-03-0.425D-03-0.640D-02
 Coeff:      0.222D-01-0.767D-01 0.344D+00-0.108D+01 0.180D+01
 Gap=     0.175 Goal=   None    Shift=    0.000
 RMSDP=6.98D-07 MaxDP=1.20D-05 DE=-8.93D-10 OVMax= 2.19D-05

 Cycle  18  Pass 1  IDiag  3:
 E= -3.66685915161224     Delta-E=       -0.000000000240 Rises=F Damp=F
 DIIS: error= 2.71D-07 at cycle  18 NSaved=  18.
 NSaved=18 IEnMin=18 EnMin= -3.66685915161224     IErMin=18 ErrMin= 2.71D-07
 ErrMax= 2.71D-07  0.00D+00 EMaxC= 1.00D-01 BMatC= 2.70D-12 BMatP= 1.17D-11
 IDIUse=1 WtCom= 1.00D+00 WtEn= 0.00D+00
 Coeff-Com:  0.268D-06-0.832D-06-0.145D-05 0.245D-05 0.124D-04-0.445D-04
 Coeff-Com:  0.830D-04-0.620D-04 0.614D-04-0.130D-03-0.386D-03 0.294D-02
 Coeff-Com: -0.596D-02 0.331D-02-0.219D-02 0.129D+00-0.777D+00 0.165D+01
 Coeff:      0.268D-06-0.832D-06-0.145D-05 0.245D-05 0.124D-04-0.445D-04
 Coeff:      0.830D-04-0.620D-04 0.614D-04-0.130D-03-0.386D-03 0.294D-02
 Coeff:     -0.596D-02 0.331D-02-0.219D-02 0.129D+00-0.777D+00 0.165D+01
 Gap=     0.175 Goal=   None    Shift=    0.000
 RMSDP=3.54D-07 MaxDP=5.92D-06 DE=-2.40D-10 OVMax= 1.10D-05

 Cycle  19  Pass 1  IDiag  3:
 E= -3.66685915166420     Delta-E=       -0.000000000052 Rises=F Damp=F
 DIIS: error= 7.83D-08 at cycle  19 NSaved=  19.
 NSaved=19 IEnMin=19 EnMin= -3.66685915166420     IErMin=19 ErrMin= 7.83D-08
 ErrMax= 7.83D-08  0.00D+00 EMaxC= 1.00D-01 BMatC= 4.65D-13 BMatP= 2.70D-12
 IDIUse=1 WtCom= 1.00D+00 WtEn= 0.00D+00
 Coeff-Com:  0.736D-07-0.566D-06 0.174D-05-0.188D-06-0.531D-05 0.107D-04
 Coeff-Com: -0.229D-04 0.386D-04-0.290D-04-0.359D-04 0.397D-03-0.154D-02
 Coeff-Com:  0.359D-02-0.447D-02-0.183D-02 0.120D-01 0.837D-01-0.599D+00
 Coeff-Com:  0.151D+01
 Coeff:      0.736D-07-0.566D-06 0.174D-05-0.188D-06-0.531D-05 0.107D-04
 Coeff:     -0.229D-04 0.386D-04-0.290D-04-0.359D-04 0.397D-03-0.154D-02
 Coeff:      0.359D-02-0.447D-02-0.183D-02 0.120D-01 0.837D-01-0.599D+00
 Coeff:      0.151D+01
 Gap=     0.175 Goal=   None    Shift=    0.000
 RMSDP=1.29D-07 MaxDP=1.97D-06 DE=-5.20D-11 OVMax= 3.77D-06

 Cycle  20  Pass 1  IDiag  3:
 E= -3.66685915167153     Delta-E=       -0.000000000007 Rises=F Damp=F
 DIIS: error= 2.25D-08 at cycle  20 NSaved=  20.
 NSaved=20 IEnMin=20 EnMin= -3.66685915167153     IErMin=20 ErrMin= 2.25D-08
 ErrMax= 2.25D-08  0.00D+00 EMaxC= 1.00D-01 BMatC= 6.88D-14 BMatP= 4.65D-13
 IDIUse=1 WtCom= 1.00D+00 WtEn= 0.00D+00
 Coeff-Com:  0.199D-07-0.205D-06 0.495D-06-0.537D-06-0.884D-06 0.263D-05
 Coeff-Com: -0.451D-05 0.902D-05-0.188D-05-0.279D-04 0.825D-05 0.148D-03
 Coeff-Com: -0.345D-03 0.540D-03-0.274D-02 0.653D-02-0.330D-02 0.599D-01
 Coeff-Com: -0.493D+00 0.143D+01
 Coeff:      0.199D-07-0.205D-06 0.495D-06-0.537D-06-0.884D-06 0.263D-05
 Coeff:     -0.451D-05 0.902D-05-0.188D-05-0.279D-04 0.825D-05 0.148D-03
 Coeff:     -0.345D-03 0.540D-03-0.274D-02 0.653D-02-0.330D-02 0.599D-01
 Coeff:     -0.493D+00 0.143D+01
 Gap=     0.175 Goal=   None    Shift=    0.000
 RMSDP=4.00D-08 MaxDP=4.91D-07 DE=-7.33D-12 OVMax= 1.01D-06

 Cycle  21  Pass 1  IDiag  3:
 E= -3.66685915167170     Delta-E=       -0.000000000000 Rises=F Damp=F
 DIIS: error= 1.05D-08 at cycle  21 NSaved=  20.
 NSaved=20 IEnMin=20 EnMin= -3.66685915167170     IErMin=20 ErrMin= 1.05D-08
 ErrMax= 1.05D-08  0.00D+00 EMaxC= 1.00D-01 BMatC= 1.16D-14 BMatP= 6.88D-14
 IDIUse=1 WtCom= 1.00D+00 WtEn= 0.00D+00
 Large coefficients: NSaved= 20 BigCof=    0.00 CofMax=   10.00 Det=-6.72D-15
 Inversion failed.  Reducing to 19 matrices.
 Large coefficients: NSaved= 19 BigCof=    0.00 CofMax=   10.00 Det=-6.75D-15
 Inversion failed.  Reducing to 18 matrices.
 Large coefficients: NSaved= 18 BigCof=    0.00 CofMax=   10.00 Det=-6.75D-15
 Inversion failed.  Reducing to 17 matrices.
 Large coefficients: NSaved= 17 BigCof=    0.00 CofMax=   10.00 Det=-6.80D-15
 Inversion failed.  Reducing to 16 matrices.
 Large coefficients: NSaved= 16 BigCof=    0.00 CofMax=   10.00 Det=-6.81D-15
 Inversion failed.  Reducing to 15 matrices.
 Coeff-Com:  0.405D-06-0.403D-06-0.254D-05 0.747D-05 0.221D-05-0.649D-04
 Coeff-Com:  0.188D-03-0.239D-03 0.824D-03-0.236D-02 0.495D-02-0.186D-01
 Coeff-Com:  0.138D+00-0.713D+00 0.159D+01
 Coeff:      0.405D-06-0.403D-06-0.254D-05 0.747D-05 0.221D-05-0.649D-04
 Coeff:      0.188D-03-0.239D-03 0.824D-03-0.236D-02 0.495D-02-0.186D-01
 Coeff:      0.138D+00-0.713D+00 0.159D+01
 Gap=     0.175 Goal=   None    Shift=    0.000
 RMSDP=1.62D-08 MaxDP=1.28D-07 DE=-1.71D-13 OVMax= 2.75D-07

 Cycle  22  Pass 1  IDiag  3:
 E= -3.66685915167221     Delta-E=       -0.000000000001 Rises=F Damp=F
 DIIS: error= 4.85D-09 at cycle  22 NSaved=  16.
 NSaved=16 IEnMin=16 EnMin= -3.66685915167221     IErMin=16 ErrMin= 4.85D-09
 ErrMax= 4.85D-09  0.00D+00 EMaxC= 1.00D-01 BMatC= 2.12D-15 BMatP= 1.16D-14
 IDIUse=1 WtCom= 1.00D+00 WtEn= 0.00D+00
 Large coefficients: NSaved= 16 BigCof=    0.00 CofMax=   10.00 Det=-6.96D-16
 Inversion failed.  Reducing to 15 matrices.
 Coeff-Com:  0.308D-05-0.718D-05 0.388D-05-0.101D-05 0.157D-04-0.542D-04
 Coeff-Com:  0.110D-03-0.329D-03 0.305D-03-0.162D-02 0.100D-01-0.538D-01
 Coeff-Com:  0.290D+00-0.101D+01 0.176D+01
 Coeff:      0.308D-05-0.718D-05 0.388D-05-0.101D-05 0.157D-04-0.542D-04
 Coeff:      0.110D-03-0.329D-03 0.305D-03-0.162D-02 0.100D-01-0.538D-01
 Coeff:      0.290D+00-0.101D+01 0.176D+01
 Gap=     0.175 Goal=   None    Shift=    0.000
 RMSDP=8.28D-09 MaxDP=7.66D-08 DE=-5.12D-13 OVMax= 1.06D-07

 Cycle  23  Pass 2  IDiag  1:
 SCF Done:  E(RPM6) =  -3.66685915167     A.U. after   23 cycles
            NFock= 22  Conv=0.83D-08     -V/T= 0.9734
 KE=-1.377245357889D+02 PE=-5.950374657262D+02 EE= 3.392080304807D+02
 Leave Link  502 at Fri Jan  7 12:00:50 2022, MaxMem=   402653184 cpu:             159.9 elap:              27.9
 (Enter /work/01114/jfonner/frontera/gaussian/16rC.01/g16/l601.exe)
 Copying SCF densities to generalized density rwf, IOpCl= 0 IROHF=0.

 **********************************************************************

            Population analysis using the SCF Density.

 **********************************************************************

 Alpha  occ. eigenvalues --   -1.41720  -1.39285  -1.34635  -1.31580  -1.29018
 Alpha  occ. eigenvalues --   -1.23822  -1.16461  -1.10792  -1.02948  -0.95024
 Alpha  occ. eigenvalues --   -0.94745  -0.86177  -0.81702  -0.79584  -0.78517
 Alpha  occ. eigenvalues --   -0.76388  -0.75746  -0.74355  -0.72037  -0.69788
 Alpha  occ. eigenvalues --   -0.67429  -0.66107  -0.65091  -0.62333  -0.61268
 Alpha  occ. eigenvalues --   -0.60487  -0.58006  -0.57713  -0.52948  -0.52417
 Alpha  occ. eigenvalues --   -0.50320  -0.48852
 Alpha virt. eigenvalues --   -0.31469  -0.25219  -0.22240  -0.19849  -0.17778
 Alpha virt. eigenvalues --   -0.16936  -0.16217  -0.12688  -0.10891  -0.08237
 Alpha virt. eigenvalues --   -0.07476  -0.06617  -0.05209  -0.04236  -0.03705
 Alpha virt. eigenvalues --   -0.03453  -0.01909   0.00239   0.04169   0.05262
 Alpha virt. eigenvalues --    0.05988   0.06861   0.15588   0.26969
          Condensed to atoms (all electrons):
               1          2          3          4          5          6
     1  C    3.480251   0.000000   0.000000   0.000000   0.000000   0.000000
     2  O    0.000000   6.557328   0.000000   0.000000   0.000000   0.000000
     3  N    0.000000   0.000000   5.634450   0.000000   0.000000   0.000000
     4  C    0.000000   0.000000   0.000000   3.922021   0.000000   0.000000
     5  C    0.000000   0.000000   0.000000   0.000000   3.520590   0.000000
     6  O    0.000000   0.000000   0.000000   0.000000   0.000000   6.399352
     7  N    0.000000   0.000000   0.000000   0.000000   0.000000   0.000000
     8  C    0.000000   0.000000   0.000000   0.000000   0.000000   0.000000
     9  C    0.000000   0.000000   0.000000   0.000000   0.000000   0.000000
    10  C    0.000000   0.000000   0.000000   0.000000   0.000000   0.000000
    11  O    0.000000   0.000000   0.000000   0.000000   0.000000   0.000000
    12  N    0.000000   0.000000   0.000000   0.000000   0.000000   0.000000
    13  C    0.000000   0.000000   0.000000   0.000000   0.000000   0.000000
    14  H    0.000000   0.000000   0.000000   0.000000   0.000000   0.000000
    15  H    0.000000   0.000000   0.000000   0.000000   0.000000   0.000000
    16  H    0.000000   0.000000   0.000000   0.000000   0.000000   0.000000
    17  H    0.000000   0.000000   0.000000   0.000000   0.000000   0.000000
               7          8          9         10         11         12
     1  C    0.000000   0.000000   0.000000   0.000000   0.000000   0.000000
     2  O    0.000000   0.000000   0.000000   0.000000   0.000000   0.000000
     3  N    0.000000   0.000000   0.000000   0.000000   0.000000   0.000000
     4  C    0.000000   0.000000   0.000000   0.000000   0.000000   0.000000
     5  C    0.000000   0.000000   0.000000   0.000000   0.000000   0.000000
     6  O    0.000000   0.000000   0.000000   0.000000   0.000000   0.000000
     7  N    5.458738   0.000000   0.000000   0.000000   0.000000   0.000000
     8  C    0.000000   3.325628   0.000000   0.000000   0.000000   0.000000
     9  C    0.000000   0.000000   3.747307   0.000000   0.000000   0.000000
    10  C    0.000000   0.000000   0.000000   3.654605   0.000000   0.000000
    11  O    0.000000   0.000000   0.000000   0.000000   6.352860   0.000000
    12  N    0.000000   0.000000   0.000000   0.000000   0.000000   5.465473
    13  C    0.000000   0.000000   0.000000   0.000000   0.000000   0.000000
    14  H    0.000000   0.000000   0.000000   0.000000   0.000000   0.000000
    15  H    0.000000   0.000000   0.000000   0.000000   0.000000   0.000000
    16  H    0.000000   0.000000   0.000000   0.000000   0.000000   0.000000
    17  H    0.000000   0.000000   0.000000   0.000000   0.000000   0.000000
              13         14         15         16         17
     1  C    0.000000   0.000000   0.000000   0.000000   0.000000
     2  O    0.000000   0.000000   0.000000   0.000000   0.000000
     3  N    0.000000   0.000000   0.000000   0.000000   0.000000
     4  C    0.000000   0.000000   0.000000   0.000000   0.000000
     5  C    0.000000   0.000000   0.000000   0.000000   0.000000
     6  O    0.000000   0.000000   0.000000   0.000000   0.000000
     7  N    0.000000   0.000000   0.000000   0.000000   0.000000
     8  C    0.000000   0.000000   0.000000   0.000000   0.000000
     9  C    0.000000   0.000000   0.000000   0.000000   0.000000
    10  C    0.000000   0.000000   0.000000   0.000000   0.000000
    11  O    0.000000   0.000000   0.000000   0.000000   0.000000
    12  N    0.000000   0.000000   0.000000   0.000000   0.000000
    13  C    3.766784   0.000000   0.000000   0.000000   0.000000
    14  H    0.000000   0.959248   0.000000   0.000000   0.000000
    15  H    0.000000   0.000000   0.594661   0.000000   0.000000
    16  H    0.000000   0.000000   0.000000   0.871843   0.000000
    17  H    0.000000   0.000000   0.000000   0.000000   0.288860
 Mulliken charges:
               1
     1  C    0.519749
     2  O   -0.557328
     3  N   -0.634450
     4  C    0.077979
     5  C    0.479410
     6  O   -0.399352
     7  N   -0.458738
     8  C    0.674372
     9  C    0.252693
    10  C    0.345395
    11  O   -0.352860
    12  N   -0.465473
    13  C    0.233216
    14  H    0.040752
    15  H    0.405339
    16  H    0.128157
    17  H    0.711140
 Sum of Mulliken charges =   1.00000
 Mulliken charges with hydrogens summed into heavy atoms:
               1
     1  C    0.560501
     2  O   -0.557328
     3  N   -0.634450
     4  C    0.077979
     5  C    0.479410
     6  O   -0.399352
     7  N   -0.458738
     8  C    0.674372
     9  C    0.658032
    10  C    0.345395
    11  O   -0.352860
    12  N   -0.465473
    13  C    1.072512
 Charge=              1.0000 electrons
 Dipole moment (field-independent basis, Debye):
    X=             20.4446    Y=              0.4345    Z=             56.4308  Tot=             60.0217
 N-N= 3.898871118827D+02 E-N=-5.950374658209D+02  KE=-1.377245357889D+02
 Leave Link  601 at Fri Jan  7 12:00:51 2022, MaxMem=   402653184 cpu:               2.6 elap:               0.7
 (Enter /work/01114/jfonner/frontera/gaussian/16rC.01/g16/l9999.exe)

 Test job not archived.
 1\1\GINC-C208-012\SP\RPM6\ZDO\C7H4N3O3(1+)\SA748948\07-Jan-2022\0\\#p 
 int=acc2e=12 pm6 charge nosymm\\Atom number=17\\1,1\C,0,0.84001601,-0.
 85400874,6.79200257\O,0,1.02699873,-2.02200131,6.72000225\N,0,1.810007
 17,0.00198939,7.02300606\C,0,3.19099574,-0.42899304,7.10099501\C,0,3.9
 1099259,0.25801709,8.22899215\O,0,4.06399693,1.47799802,8.227997\N,0,4
 .3639906,-0.5269912,9.18900777\C,0,5.06699613,0.01999652,10.32599226\C
 ,0,3.87099569,-0.10299801,5.74799428\C,0,4.2710017,0.81698251,11.29599
 614\O,0,4.35898767,2.03299404,11.3669919\N,0,3.49199258,0.10401098,12.
 0729888\C,0,2.58498638,0.67698929,13.08500481\H,0,-0.1553974,-0.471212
 48,6.70528941\H,0,4.86074533,-0.49141332,5.62787266\H,0,2.88853974,0.2
 2275811,14.00502078\H,0,1.55915044,0.4328467,12.90346961\\Version=ES64
 L-G16RevC.01\HF=-3.6668592\RMSD=8.275e-09\Dipole=1.9636243,-0.0635394,
 5.0817051\PG=C01 [X(C7H4N3O3)]\\@


 IT TAKES GREATER CHARACTER TO CARRY OFF GOOD FORTUNE THAN BAD.
                     FRENCH PROVERB.
 Job cpu time:       0 days  0 hours  3 minutes 41.4 seconds.
 Elapsed time:       0 days  0 hours  0 minutes 39.2 seconds.
 File lengths (MBytes):  RWF=      6 Int=      0 D2E=      0 Chk=      2 Scr=      1
 Normal termination of Gaussian 16 at Fri Jan  7 12:00:52 2022.
