Atom number=23                                                          
SP        RPM6                                                        ZDO                 
Number of atoms                            I               23
Info1-9                                    I   N=           9
          80          79           0           0           0         111
           1           8        2302
Full Title                                 C   N=           2
Atom number=23          
Route                                      C   N=           3
#p int=acc2e=12 pm6 charge nosymm   
Charge                                     I                4
Multiplicity                               I                1
Number of electrons                        I               90
Number of alpha electrons                  I               45
Number of beta electrons                   I               45
Number of basis functions                  I               83
Number of independent functions            I               83
Number of point charges in /Mol/           I                0
Number of translation vectors              I                0
Atomic numbers                             I   N=          23
           6           8           7           6           6           8
           7           6           6           6           6           8
           7           6           6           6           7           6
           6           7           1           1           1
Nuclear charges                            R   N=          23
  4.00000000E+00  6.00000000E+00  5.00000000E+00  4.00000000E+00  4.00000000E+00
  6.00000000E+00  5.00000000E+00  4.00000000E+00  4.00000000E+00  4.00000000E+00
  4.00000000E+00  6.00000000E+00  5.00000000E+00  4.00000000E+00  4.00000000E+00
  4.00000000E+00  5.00000000E+00  4.00000000E+00  4.00000000E+00  5.00000000E+00
  1.00000000E+00  1.00000000E+00  1.00000000E+00
Current cartesian coordinates              R   N=          69
 -3.09160432E+00  3.30694740E-01  8.69275385E+00 -3.29569780E+00  2.56246921E+00
  9.18783135E+00 -2.06925099E+00 -1.32281734E+00  1.02328755E+01 -1.08091452E+00
 -5.87715313E-01  1.26025806E+01  1.58740020E+00 -1.61384263E+00  1.28350247E+01
  1.94074633E+00 -3.82102870E+00  1.26989638E+01  3.42041783E+00  3.75940225E-03
  1.32715580E+01  6.03010801E+00 -8.10679355E-01  1.34189358E+01 -2.66640190E+00
 -1.72529932E+00  1.47342106E+01 -1.37384193E+00 -1.21886880E+00  1.72399945E+01
  7.39070487E+00  4.87581636E-01  1.55505414E+01  7.67984117E+00  2.79301147E+00
  1.55486609E+01  8.24674704E+00 -9.95869038E-01  1.73647080E+01  9.57523496E+00
  3.77879462E-02  1.95132973E+01  7.31512168E+00 -1.94638030E-01  1.08621350E+01
  9.91539037E+00 -1.21508211E+00  1.05465516E+01  1.10756959E+01 -1.30201274E+00
  8.22596025E+00  1.15424317E+01 -2.26200168E+00  1.21849773E+01  1.33395837E+01
 -2.31869687E+00  8.46976636E+00  1.36797234E+01 -2.87802789E+00  1.08678410E+01
 -3.66470683E+00 -4.29411028E-01  6.90885228E+00 -4.53983552E+00 -9.64614215E-01
  1.47234041E+01  8.49249071E+00  1.12188095E+00  2.08327364E+01
Number of symbols in /Mol/                 I                0
Int Atom Types                             I   N=          23
           0           0           0           0           0           0
           0           0           0           0           0           0
           0           0           0           0           0           0
           0           0           0           0           0
Force Field                                I                0
Atom Types                                 C   N=          23
                                                            
                                                            
                                                            
                                                            
                                    
MM charges                                 R   N=          23
  0.00000000E+00  0.00000000E+00  0.00000000E+00  0.00000000E+00  0.00000000E+00
  0.00000000E+00  0.00000000E+00  0.00000000E+00  0.00000000E+00  0.00000000E+00
  0.00000000E+00  0.00000000E+00  0.00000000E+00  0.00000000E+00  0.00000000E+00
  0.00000000E+00  0.00000000E+00  0.00000000E+00  0.00000000E+00  0.00000000E+00
  0.00000000E+00  0.00000000E+00  0.00000000E+00
Integer atomic weights                     I   N=          23
          12          16          14          12          12          16
          14          12          12          12          12          16
          14          12          12          12          14          12
          12          14           1           1           1
Real atomic weights                        R   N=          23
  1.20000000E+01  1.59949146E+01  1.40030740E+01  1.20000000E+01  1.20000000E+01
  1.59949146E+01  1.40030740E+01  1.20000000E+01  1.20000000E+01  1.20000000E+01
  1.20000000E+01  1.59949146E+01  1.40030740E+01  1.20000000E+01  1.20000000E+01
  1.20000000E+01  1.40030740E+01  1.20000000E+01  1.20000000E+01  1.40030740E+01
  1.00782504E+00  1.00782504E+00  1.00782504E+00
Atom fragment info                         I   N=          23
           0           0           0           0           0           0
           0           0           0           0           0           0
           0           0           0           0           0           0
           0           0           0           0           0
Atom residue num                           I   N=          23
           0           0           0           0           0           0
           0           0           0           0           0           0
           0           0           0           0           0           0
           0           0           0           0           0
Nuclear spins                              I   N=          23
           0           0           2           0           0           0
           2           0           0           0           0           0
           2           0           0           0           2           0
           0           2           1           1           1
Nuclear ZEff                               R   N=          23
 -3.90000000E+00 -6.00000000E+00 -4.90000000E+00 -3.90000000E+00 -3.90000000E+00
 -6.00000000E+00 -4.90000000E+00 -3.90000000E+00 -3.90000000E+00 -3.90000000E+00
 -3.90000000E+00 -6.00000000E+00 -4.90000000E+00 -3.90000000E+00 -3.90000000E+00
 -3.90000000E+00 -4.90000000E+00 -3.90000000E+00 -3.90000000E+00 -4.90000000E+00
 -1.00000000E+00 -1.00000000E+00 -1.00000000E+00
Nuclear ZNuc                               R   N=          23
  6.00000000E+00  8.00000000E+00  7.00000000E+00  6.00000000E+00  6.00000000E+00
  8.00000000E+00  7.00000000E+00  6.00000000E+00  6.00000000E+00  6.00000000E+00
  6.00000000E+00  8.00000000E+00  7.00000000E+00  6.00000000E+00  6.00000000E+00
  6.00000000E+00  7.00000000E+00  6.00000000E+00  6.00000000E+00  7.00000000E+00
  1.00000000E+00  1.00000000E+00  1.00000000E+00
Nuclear QMom                               R   N=          23
  0.00000000E+00  0.00000000E+00  2.04400000E+00  0.00000000E+00  0.00000000E+00
  0.00000000E+00  2.04400000E+00  0.00000000E+00  0.00000000E+00  0.00000000E+00
  0.00000000E+00  0.00000000E+00  2.04400000E+00  0.00000000E+00  0.00000000E+00
  0.00000000E+00  2.04400000E+00  0.00000000E+00  0.00000000E+00  2.04400000E+00
  0.00000000E+00  0.00000000E+00  0.00000000E+00
Nuclear GFac                               R   N=          23
  0.00000000E+00  0.00000000E+00  4.03761000E-01  0.00000000E+00  0.00000000E+00
  0.00000000E+00  4.03761000E-01  0.00000000E+00  0.00000000E+00  0.00000000E+00
  0.00000000E+00  0.00000000E+00  4.03761000E-01  0.00000000E+00  0.00000000E+00
  0.00000000E+00  4.03761000E-01  0.00000000E+00  0.00000000E+00  4.03761000E-01
  2.79284600E+00  2.79284600E+00  2.79284600E+00
MicOpt                                     I   N=          23
          -1          -1          -1          -1          -1          -1
          -1          -1          -1          -1          -1          -1
          -1          -1          -1          -1          -1          -1
          -1          -1          -1          -1          -1
Number of residues                         I                0
Number of secondary structures             I                0
Number of contracted shells                I               23
Number of primitive shells                 I              138
Pure/Cartesian d shells                    I                0
Pure/Cartesian f shells                    I                0
Highest angular momentum                   I                1
Largest degree of contraction              I                6
Shell types                                I   N=          23
          -1          -1          -1          -1          -1          -1
          -1          -1          -1          -1          -1          -1
          -1          -1          -1          -1          -1          -1
          -1          -1           0           0           0
Number of primitives per shell             I   N=          23
           6           6           6           6           6           6
           6           6           6           6           6           6
           6           6           6           6           6           6
           6           6           6           6           6
Shell to atom map                          I   N=          23
           1           2           3           4           5           6
           7           8           9          10          11          12
          13          14          15          16          17          18
          19          20          21          22          23
Primitive exponents                        R   N=         138
  1.14476344E+01  3.29633588E+00  1.29653143E+00  5.92558930E-01  2.94896438E-01
  1.51447622E-01  8.02643074E+01  2.31120341E+01  9.09054165E+00  4.15468650E+00
  2.06764625E+00  1.06186467E+00  1.54719623E+01  4.45513742E+00  1.75231709E+00
  8.00868468E-01  3.98565014E-01  2.04687870E-01  1.14476344E+01  3.29633588E+00
  1.29653143E+00  5.92558930E-01  2.94896438E-01  1.51447622E-01  1.14476344E+01
  3.29633588E+00  1.29653143E+00  5.92558930E-01  2.94896438E-01  1.51447622E-01
  8.02643074E+01  2.31120341E+01  9.09054165E+00  4.15468650E+00  2.06764625E+00
  1.06186467E+00  1.54719623E+01  4.45513742E+00  1.75231709E+00  8.00868468E-01
  3.98565014E-01  2.04687870E-01  1.14476344E+01  3.29633588E+00  1.29653143E+00
  5.92558930E-01  2.94896438E-01  1.51447622E-01  1.14476344E+01  3.29633588E+00
  1.29653143E+00  5.92558930E-01  2.94896438E-01  1.51447622E-01  1.14476344E+01
  3.29633588E+00  1.29653143E+00  5.92558930E-01  2.94896438E-01  1.51447622E-01
  1.14476344E+01  3.29633588E+00  1.29653143E+00  5.92558930E-01  2.94896438E-01
  1.51447622E-01  8.02643074E+01  2.31120341E+01  9.09054165E+00  4.15468650E+00
  2.06764625E+00  1.06186467E+00  1.54719623E+01  4.45513742E+00  1.75231709E+00
  8.00868468E-01  3.98565014E-01  2.04687870E-01  1.14476344E+01  3.29633588E+00
  1.29653143E+00  5.92558930E-01  2.94896438E-01  1.51447622E-01  1.14476344E+01
  3.29633588E+00  1.29653143E+00  5.92558930E-01  2.94896438E-01  1.51447622E-01
  1.14476344E+01  3.29633588E+00  1.29653143E+00  5.92558930E-01  2.94896438E-01
  1.51447622E-01  1.54719623E+01  4.45513742E+00  1.75231709E+00  8.00868468E-01
  3.98565014E-01  2.04687870E-01  1.14476344E+01  3.29633588E+00  1.29653143E+00
  5.92558930E-01  2.94896438E-01  1.51447622E-01  1.14476344E+01  3.29633588E+00
  1.29653143E+00  5.92558930E-01  2.94896438E-01  1.51447622E-01  1.54719623E+01
  4.45513742E+00  1.75231709E+00  8.00868468E-01  3.98565014E-01  2.04687870E-01
  4.39461478E+00  1.26542531E+00  4.97723458E-01  2.27476537E-01  1.13207340E-01
  5.81389949E-02  4.39461478E+00  1.26542531E+00  4.97723458E-01  2.27476537E-01
  1.13207340E-01  5.81389949E-02  4.39461478E+00  1.26542531E+00  4.97723458E-01
  2.27476537E-01  1.13207340E-01  5.81389949E-02
Contraction coefficients                   R   N=         138
 -9.73739553E-03 -7.26587678E-02 -1.71615520E-01  1.28977624E-01  7.28861451E-01
  3.01331742E-01 -9.73739553E-03 -7.26587678E-02 -1.71615520E-01  1.28977624E-01
  7.28861451E-01  3.01331742E-01 -9.73739553E-03 -7.26587678E-02 -1.71615520E-01
  1.28977624E-01  7.28861451E-01  3.01331742E-01 -9.73739553E-03 -7.26587678E-02
 -1.71615520E-01  1.28977624E-01  7.28861451E-01  3.01331742E-01 -9.73739553E-03
 -7.26587678E-02 -1.71615520E-01  1.28977624E-01  7.28861451E-01  3.01331742E-01
 -9.73739553E-03 -7.26587678E-02 -1.71615520E-01  1.28977624E-01  7.28861451E-01
  3.01331742E-01 -9.73739553E-03 -7.26587678E-02 -1.71615520E-01  1.28977624E-01
  7.28861451E-01  3.01331742E-01 -9.73739553E-03 -7.26587678E-02 -1.71615520E-01
  1.28977624E-01  7.28861451E-01  3.01331742E-01 -9.73739553E-03 -7.26587678E-02
 -1.71615520E-01  1.28977624E-01  7.28861451E-01  3.01331742E-01 -9.73739553E-03
 -7.26587678E-02 -1.71615520E-01  1.28977624E-01  7.28861451E-01  3.01331742E-01
 -9.73739553E-03 -7.26587678E-02 -1.71615520E-01  1.28977624E-01  7.28861451E-01
  3.01331742E-01 -9.73739553E-03 -7.26587678E-02 -1.71615520E-01  1.28977624E-01
  7.28861451E-01  3.01331742E-01 -9.73739553E-03 -7.26587678E-02 -1.71615520E-01
  1.28977624E-01  7.28861451E-01  3.01331742E-01 -9.73739553E-03 -7.26587678E-02
 -1.71615520E-01  1.28977624E-01  7.28861451E-01  3.01331742E-01 -9.73739553E-03
 -7.26587678E-02 -1.71615520E-01  1.28977624E-01  7.28861451E-01  3.01331742E-01
 -9.73739553E-03 -7.26587678E-02 -1.71615520E-01  1.28977624E-01  7.28861451E-01
  3.01331742E-01 -9.73739553E-03 -7.26587678E-02 -1.71615520E-01  1.28977624E-01
  7.28861451E-01  3.01331742E-01 -9.73739553E-03 -7.26587678E-02 -1.71615520E-01
  1.28977624E-01  7.28861451E-01  3.01331742E-01 -9.73739553E-03 -7.26587678E-02
 -1.71615520E-01  1.28977624E-01  7.28861451E-01  3.01331742E-01 -9.73739553E-03
 -7.26587678E-02 -1.71615520E-01  1.28977624E-01  7.28861451E-01  3.01331742E-01
 -9.73739553E-03 -7.26587678E-02 -1.71615520E-01  1.28977624E-01  7.28861451E-01
  3.01331742E-01 -9.73739553E-03 -7.26587678E-02 -1.71615520E-01  1.28977624E-01
  7.28861451E-01  3.01331742E-01 -9.73739553E-03 -7.26587678E-02 -1.71615520E-01
  1.28977624E-01  7.28861451E-01  3.01331742E-01
P(S=P) Contraction coefficients            R   N=         138
 -8.10494336E-03 -1.71547892E-02  7.36978576E-02  3.96514999E-01  4.97808488E-01
  1.17482582E-01 -8.10494336E-03 -1.71547892E-02  7.36978576E-02  3.96514999E-01
  4.97808488E-01  1.17482582E-01 -8.10494336E-03 -1.71547892E-02  7.36978576E-02
  3.96514999E-01  4.97808488E-01  1.17482582E-01 -8.10494336E-03 -1.71547892E-02
  7.36978576E-02  3.96514999E-01  4.97808488E-01  1.17482582E-01 -8.10494336E-03
 -1.71547892E-02  7.36978576E-02  3.96514999E-01  4.97808488E-01  1.17482582E-01
 -8.10494336E-03 -1.71547892E-02  7.36978576E-02  3.96514999E-01  4.97808488E-01
  1.17482582E-01 -8.10494336E-03 -1.71547892E-02  7.36978576E-02  3.96514999E-01
  4.97808488E-01  1.17482582E-01 -8.10494336E-03 -1.71547892E-02  7.36978576E-02
  3.96514999E-01  4.97808488E-01  1.17482582E-01 -8.10494336E-03 -1.71547892E-02
  7.36978576E-02  3.96514999E-01  4.97808488E-01  1.17482582E-01 -8.10494336E-03
 -1.71547892E-02  7.36978576E-02  3.96514999E-01  4.97808488E-01  1.17482582E-01
 -8.10494336E-03 -1.71547892E-02  7.36978576E-02  3.96514999E-01  4.97808488E-01
  1.17482582E-01 -8.10494336E-03 -1.71547892E-02  7.36978576E-02  3.96514999E-01
  4.97808488E-01  1.17482582E-01 -8.10494336E-03 -1.71547892E-02  7.36978576E-02
  3.96514999E-01  4.97808488E-01  1.17482582E-01 -8.10494336E-03 -1.71547892E-02
  7.36978576E-02  3.96514999E-01  4.97808488E-01  1.17482582E-01 -8.10494336E-03
 -1.71547892E-02  7.36978576E-02  3.96514999E-01  4.97808488E-01  1.17482582E-01
 -8.10494336E-03 -1.71547892E-02  7.36978576E-02  3.96514999E-01  4.97808488E-01
  1.17482582E-01 -8.10494336E-03 -1.71547892E-02  7.36978576E-02  3.96514999E-01
  4.97808488E-01  1.17482582E-01 -8.10494336E-03 -1.71547892E-02  7.36978576E-02
  3.96514999E-01  4.97808488E-01  1.17482582E-01 -8.10494336E-03 -1.71547892E-02
  7.36978576E-02  3.96514999E-01  4.97808488E-01  1.17482582E-01 -8.10494336E-03
 -1.71547892E-02  7.36978576E-02  3.96514999E-01  4.97808488E-01  1.17482582E-01
  0.00000000E+00  0.00000000E+00  0.00000000E+00  0.00000000E+00  0.00000000E+00
  0.00000000E+00  0.00000000E+00  0.00000000E+00  0.00000000E+00  0.00000000E+00
  0.00000000E+00  0.00000000E+00  0.00000000E+00  0.00000000E+00  0.00000000E+00
  0.00000000E+00  0.00000000E+00  0.00000000E+00
Coordinates of each shell                  R   N=          69
 -3.09160432E+00  3.30694740E-01  8.69275385E+00 -3.29569780E+00  2.56246921E+00
  9.18783135E+00 -2.06925099E+00 -1.32281734E+00  1.02328755E+01 -1.08091452E+00
 -5.87715313E-01  1.26025806E+01  1.58740020E+00 -1.61384263E+00  1.28350247E+01
  1.94074633E+00 -3.82102870E+00  1.26989638E+01  3.42041783E+00  3.75940225E-03
  1.32715580E+01  6.03010801E+00 -8.10679355E-01  1.34189358E+01 -2.66640190E+00
 -1.72529932E+00  1.47342106E+01 -1.37384193E+00 -1.21886880E+00  1.72399945E+01
  7.39070487E+00  4.87581636E-01  1.55505414E+01  7.67984117E+00  2.79301147E+00
  1.55486609E+01  8.24674704E+00 -9.95869038E-01  1.73647080E+01  9.57523496E+00
  3.77879462E-02  1.95132973E+01  7.31512168E+00 -1.94638030E-01  1.08621350E+01
  9.91539037E+00 -1.21508211E+00  1.05465516E+01  1.10756959E+01 -1.30201274E+00
  8.22596025E+00  1.15424317E+01 -2.26200168E+00  1.21849773E+01  1.33395837E+01
 -2.31869687E+00  8.46976636E+00  1.36797234E+01 -2.87802789E+00  1.08678410E+01
 -3.66470683E+00 -4.29411028E-01  6.90885228E+00 -4.53983552E+00 -9.64614215E-01
  1.47234041E+01  8.49249071E+00  1.12188095E+00  2.08327364E+01
Num ILSW                                   I              100
ILSW                                       I   N=         100
           0           0           0           0           2           0
           0           0           0           0           0          -1
           5           0           0           0           0           0
           0           0           0           0           0           0
           1           1           0           0           0           0
           0           0      100000           0          -1           0
           0           0           0           0           0           0
           0           0           0          40           0           0
           0 -2000000000           1           0           0           0
           0           0           4          52           0           0
           0           1           0           0           0           0
           0           0           0          23           0           1
           0           0           0           0           0           0
           0           0           0           0           0           0
           0           0           0           0           0           0
           0           0           0           0           0           0
           0           0           0           0
Num RLSW                                   I               52
RLSW                                       R   N=          52
  1.00000000E+00  1.00000000E+00  1.00000000E+00  1.00000000E+00  1.00000000E+00
  0.00000000E+00  0.00000000E+00  1.00000000E+00  0.00000000E+00  0.00000000E+00
  0.00000000E+00  0.00000000E+00  1.00000000E+00  0.00000000E+00  0.00000000E+00
  0.00000000E+00  0.00000000E+00  1.00000000E+00  0.00000000E+00  0.00000000E+00
  0.00000000E+00  0.00000000E+00  1.00000000E+00  0.00000000E+00  0.00000000E+00
  0.00000000E+00  0.00000000E+00  1.00000000E+00  0.00000000E+00  0.00000000E+00
  0.00000000E+00  0.00000000E+00  1.00000000E+00  0.00000000E+00  0.00000000E+00
  0.00000000E+00  0.00000000E+00  0.00000000E+00  1.00000000E+00  1.00000000E+00
  0.00000000E+00  1.00000000E+00  0.00000000E+00  0.00000000E+00  0.00000000E+00
  0.00000000E+00  0.00000000E+00  0.00000000E+00  0.00000000E+00  0.00000000E+00
  0.00000000E+00  0.00000000E+00
MxBond                                     I                3
NBond                                      I   N=          23
           3           1           2           3           3           1
           2           3           3           1           3           1
           2           2           2           3           2           2
           2           2           1           1           1
IBond                                      I   N=          69
           2           3          21           1           0           0
           1           4           0           3           5           9
           4           6           7           5           0           0
           5           8           0           7          11          15
           4          10          22           9           0           0
           8          12          13          11           0           0
          11          14           0          13          23           0
           8          16           0          15          17          18
          16          19           0          16          20           0
          17          20           0          18          19           0
           1           0           0           9           0           0
          14           0           0
RBond                                      R   N=          69
  2.00000000E+00  1.50000000E+00  1.00000000E+00  2.00000000E+00  0.00000000E+00
  0.00000000E+00  1.50000000E+00  1.00000000E+00  0.00000000E+00  1.00000000E+00
  1.00000000E+00  1.00000000E+00  1.00000000E+00  2.00000000E+00  1.50000000E+00
  2.00000000E+00  0.00000000E+00  0.00000000E+00  1.50000000E+00  1.00000000E+00
  0.00000000E+00  1.00000000E+00  1.00000000E+00  1.00000000E+00  1.00000000E+00
  1.00000000E+00  1.00000000E+00  1.00000000E+00  0.00000000E+00  0.00000000E+00
  1.00000000E+00  2.00000000E+00  1.50000000E+00  2.00000000E+00  0.00000000E+00
  0.00000000E+00  1.50000000E+00  1.00000000E+00  0.00000000E+00  1.00000000E+00
  1.00000000E+00  0.00000000E+00  1.00000000E+00  1.00000000E+00  0.00000000E+00
  1.00000000E+00  1.00000000E+00  2.00000000E+00  1.00000000E+00  1.50000000E+00
  0.00000000E+00  2.00000000E+00  1.50000000E+00  0.00000000E+00  1.50000000E+00
  1.50000000E+00  0.00000000E+00  1.50000000E+00  1.50000000E+00  0.00000000E+00
  1.00000000E+00  0.00000000E+00  0.00000000E+00  1.00000000E+00  0.00000000E+00
  0.00000000E+00  1.00000000E+00  0.00000000E+00  0.00000000E+00
Virial Ratio                               R      1.008564485497905E+00
SCF Energy                                 R      1.590377741291604E+00
Total Energy                               R      1.590377741291604E+00
RMS Density                                R      9.029491967245165E-09
Job Status                                 I                1
Nuclear derivative order                   I                0
External E-field                           R   N=          35
  0.00000000E+00  0.00000000E+00  0.00000000E+00  0.00000000E+00  0.00000000E+00
  0.00000000E+00  0.00000000E+00  0.00000000E+00  0.00000000E+00  0.00000000E+00
  0.00000000E+00  0.00000000E+00  0.00000000E+00  0.00000000E+00  0.00000000E+00
  0.00000000E+00  0.00000000E+00  0.00000000E+00  0.00000000E+00  0.00000000E+00
  0.00000000E+00  0.00000000E+00  0.00000000E+00  0.00000000E+00  0.00000000E+00
  0.00000000E+00  0.00000000E+00  0.00000000E+00  0.00000000E+00  0.00000000E+00
  0.00000000E+00  0.00000000E+00  0.00000000E+00  0.00000000E+00  0.00000000E+00
IOpCl                                      I                0
IROHF                                      I                0
Alpha Orbital Energies                     R   N=          83
 -2.01471894E+00 -1.94229160E+00 -1.91249049E+00 -1.86813247E+00 -1.83818804E+00
 -1.79549128E+00 -1.76872165E+00 -1.76797505E+00 -1.71616563E+00 -1.68171320E+00
 -1.64325521E+00 -1.60619406E+00 -1.53414394E+00 -1.51725394E+00 -1.48190387E+00
 -1.43628443E+00 -1.39826232E+00 -1.37892190E+00 -1.36646506E+00 -1.32760140E+00
 -1.30873545E+00 -1.29291410E+00 -1.27679392E+00 -1.26443672E+00 -1.25364010E+00
 -1.24576606E+00 -1.23895803E+00 -1.23086117E+00 -1.21358262E+00 -1.19885152E+00
 -1.18763856E+00 -1.15415960E+00 -1.13368098E+00 -1.11747214E+00 -1.08754219E+00
 -1.08314313E+00 -1.07198759E+00 -1.06190522E+00 -1.05423446E+00 -1.04586968E+00
 -1.03940427E+00 -1.03728888E+00 -1.02998774E+00 -1.02280279E+00 -9.87735943E-01
 -8.79065342E-01 -7.76811258E-01 -7.67512597E-01 -7.61836868E-01 -7.57908913E-01
 -7.41177497E-01 -7.14646071E-01 -7.08504898E-01 -6.97042259E-01 -6.87242093E-01
 -6.59104633E-01 -6.54436509E-01 -6.39286832E-01 -6.28233965E-01 -6.18840151E-01
 -6.10107919E-01 -6.07784171E-01 -6.05508072E-01 -5.95391985E-01 -5.92879853E-01
 -5.91791179E-01 -5.78800786E-01 -5.64712127E-01 -5.61625729E-01 -5.49399145E-01
 -5.47471541E-01 -5.45409506E-01 -5.45154131E-01 -5.37332907E-01 -5.09370841E-01
 -5.05686984E-01 -4.99832661E-01 -4.96826948E-01 -4.89013236E-01 -4.81003901E-01
 -4.72675544E-01 -4.66965357E-01 -4.31397340E-01
Alpha MO coefficients                      R   N=        6889
  4.66662357E-05 -1.75503409E-05  9.96658649E-06  9.54631009E-07  4.68543248E-05
  8.60357016E-06 -2.80255223E-05  1.64370757E-05 -4.90668520E-05 -1.08833379E-04
  3.43276178E-06 -6.17686307E-05 -4.82068313E-04 -5.75366078E-04  1.52525130E-04
 -5.98519258E-05 -3.59793655E-03 -1.96992277E-03 -9.34598713E-05 -1.88032011E-04
 -1.98712171E-03 -2.73414064E-04 -1.65129581E-03 -1.33567538E-04 -7.26133791E-03
 -2.02478825E-03  1.99339386E-03  4.86468709E-04 -3.71051994E-03  6.29768218E-03
 -2.09120809E-03 -1.79211292E-03 -7.81284902E-05 -1.37487698E-04 -4.05316730E-06
  3.24323115E-05 -6.09506646E-05 -3.72279699E-05  4.63304983E-06  6.15518390E-05
 -2.48518409E-03  1.38950035E-03 -6.74452323E-04 -9.30253684E-04 -1.61593252E-03
  4.28924235E-04  1.16205874E-03  1.22751436E-05 -1.78428364E-03  1.37711615E-04
 -5.70338108E-04  4.38240291E-04 -5.00034879E-04  1.95909403E-04  4.69421601E-05
  3.55339182E-04  2.11932928E-02  3.63304590E-02 -1.40665004E-02 -7.54569598E-03
  2.94015072E-01  1.79981383E-01 -6.89581966E-02 -5.95310366E-02  4.21968036E-01
  1.25294475E-01 -8.85058076E-02  1.89759556E-01  3.13130359E-01  5.76983512E-02
  1.61569309E-02 -2.02176062E-01  4.02310503E-01 -1.57176445E-01  3.45480228E-02
  1.83625876E-01  4.54325357E-01 -1.94019348E-01  1.00065621E-01 -1.22567275E-01
  1.99071796E-05  6.87102744E-06 -1.46630686E-04  4.77927688E-01  2.82043792E-02
  2.06354860E-01  1.45090433E-01  6.49002038E-01  3.99206632E-02 -2.83832319E-01
 -3.28813734E-02  3.39310986E-01 -3.56854771E-02  1.64333553E-01 -1.25372871E-02
  1.52207653E-01 -4.19342678E-02 -5.57706673E-03 -8.56016442E-02  6.24904489E-02
 -2.12830154E-02 -5.08160918E-03 -1.12160508E-02  3.80663863E-02 -9.90509523E-03
  2.71486147E-02 -7.39419758E-04  2.22401262E-02 -1.15169584E-02 -1.08524436E-02
 -5.07969654E-03  2.96531268E-03 -4.85294560E-03 -7.10380971E-04 -1.13237694E-03
  5.21088695E-02  4.67104575E-03  1.68979773E-02 -2.89952958E-02  1.01929598E-02
 -3.16305820E-03  4.32066670E-04 -1.00648907E-02 -1.53895416E-03 -5.65478318E-04
 -4.70800429E-04 -2.96577206E-04 -1.31387181E-03  6.05999338E-05  8.47654566E-04
  2.23773167E-05 -1.19946058E-03  2.32090093E-05 -5.39332715E-04  3.06451658E-04
 -3.75549500E-04  1.50331033E-04 -1.31671332E-07  2.60729513E-04  3.43633682E-04
 -8.56387110E-04 -1.60138913E-04  1.82470557E-04 -9.99599683E-05  1.27574380E-04
 -1.08795371E-04 -1.00706323E-04  1.92160698E-04  1.22845228E-04 -7.92668974E-05
  5.15016511E-05  8.82699546E-05  1.25380204E-04 -5.56798983E-05 -1.03846398E-04
  2.82930985E-04 -7.88891358E-05  1.32528273E-05  1.19484838E-04  3.25375178E-04
 -1.07284272E-04  6.01998879E-05 -9.37016004E-05  1.14573600E-01  4.52791913E-02
 -1.21092745E-04 -4.84009635E-02  1.24382154E-02 -5.11453604E-02  4.74572185E-05
 -1.14450376E-01 -2.03713866E-03  3.81508580E-02  1.01937723E-02  6.37821371E-02
  3.56185123E-02 -6.82583257E-03  4.56328813E-02  1.63737434E-01  8.23142433E-02
 -6.70819216E-02  8.41706260E-03  5.33996132E-01  1.00202367E-01 -1.94840396E-01
  4.66515243E-03  5.60561567E-01 -3.30839423E-02  3.10261868E-01  2.39613826E-02
  3.47172477E-01 -5.97587818E-02 -1.67815445E-01 -2.86196710E-02  1.17647919E-01
 -9.22341081E-02  1.47091560E-03 -1.17435948E-02  7.53778119E-02  3.97450677E-02
  1.11272000E-02 -2.19082657E-02  3.26458340E-02  9.78279313E-04 -2.27911262E-03
 -2.61558153E-02  2.16587331E-02 -1.74945516E-02 -6.88585808E-03 -1.37120179E-02
  2.45093361E-03 -4.12636808E-03 -5.27030039E-03 -2.72578607E-03  2.35207342E-03
 -4.29216534E-03  4.18300411E-04 -4.28632269E-03 -1.73964209E-03  4.32894109E-05
  2.26519943E-04  5.00102897E-04  2.55553431E-02 -2.00350588E-02 -5.04369992E-03
  1.74383564E-02  2.85869884E-03 -1.98095345E-03 -7.55188438E-04  1.77519860E-03
  2.17143746E-03  1.54578872E-03 -1.07306716E-03  8.47209079E-04  2.96335057E-03
  1.19651556E-04  7.38015171E-05 -1.71813642E-03  3.90006806E-03 -1.01345319E-03
  4.99508622E-05  1.89316569E-03  4.87961901E-03 -1.71531270E-03  8.90187953E-04
 -1.39388054E-03 -1.35414479E-02  3.61419699E-02 -4.28879461E-04  1.18763530E-03
 -4.65255912E-03  1.47549824E-02 -3.85372196E-03  2.53598179E-02 -4.37240131E-04
 -5.12534652E-03 -3.09758444E-03 -2.69379700E-02 -3.16508772E-03 -3.85978772E-03
 -7.74399729E-03 -2.71978173E-02  1.06181771E-03  8.44845277E-03  3.65071232E-03
 -1.63978800E-02  2.15510174E-02  2.48457239E-02  6.74678440E-03 -3.96616019E-02
  8.67699879E-03 -1.44143432E-02  4.11036956E-04  7.29195390E-02  4.54313534E-02
 -4.45457750E-03  1.29261727E-02  1.63253356E-01  4.33269288E-02  6.82116639E-02
  7.05228576E-02 -1.73020086E-02 -3.29729285E-03 -3.55382242E-03  4.56720612E-03
 -6.07178298E-03  1.41090197E-03  2.91315703E-04  4.33302022E-03  5.40578347E-01