 Entering Gaussian System, Link 0=g16
 Input=NCCONCCOCCCNCCOCCCNCCOCCNCCNNCCONCCOCCCNCCOCOCNCCOCOCNCCOCCCNCCOCO_1.gjf
 Output=NCCONCCOCCCNCCOCCCNCCOCCNCCNNCCONCCOCCCNCCOCOCNCCOCOCNCCOCCCNCCOCO_1.log
 Initial command:
 /work/01114/jfonner/frontera/gaussian/16rC.01/g16/l1.exe "/scratch1/08249/sa748948/lsqc/26989325/Gau-41081.inp" -scrdir="/scratch1/08249/sa748948/lsqc/26989325/"
 Entering Link 1 = /work/01114/jfonner/frontera/gaussian/16rC.01/g16/l1.exe PID=     41090.
  
 Copyright (c) 1988-2019, Gaussian, Inc.  All Rights Reserved.
  
 This is part of the Gaussian(R) 16 program.  It is based on
 the Gaussian(R) 09 system (copyright 2009, Gaussian, Inc.),
 the Gaussian(R) 03 system (copyright 2003, Gaussian, Inc.),
 the Gaussian(R) 98 system (copyright 1998, Gaussian, Inc.),
 the Gaussian(R) 94 system (copyright 1995, Gaussian, Inc.),
 the Gaussian 92(TM) system (copyright 1992, Gaussian, Inc.),
 the Gaussian 90(TM) system (copyright 1990, Gaussian, Inc.),
 the Gaussian 88(TM) system (copyright 1988, Gaussian, Inc.),
 the Gaussian 86(TM) system (copyright 1986, Carnegie Mellon
 University), and the Gaussian 82(TM) system (copyright 1983,
 Carnegie Mellon University). Gaussian is a federally registered
 trademark of Gaussian, Inc.
  
 This software contains proprietary and confidential information,
 including trade secrets, belonging to Gaussian, Inc.
  
 This software is provided under written license and may be
 used, copied, transmitted, or stored only in accord with that
 written license.
  
 The following legend is applicable only to US Government
 contracts under FAR:
  
                    RESTRICTED RIGHTS LEGEND
  
 Use, reproduction and disclosure by the US Government is
 subject to restrictions as set forth in subparagraphs (a)
 and (c) of the Commercial Computer Software - Restricted
 Rights clause in FAR 52.227-19.
  
 Gaussian, Inc.
 340 Quinnipiac St., Bldg. 40, Wallingford CT 06492
  
  
 ---------------------------------------------------------------
 Warning -- This program may not be used in any manner that
 competes with the business of Gaussian, Inc. or will provide
 assistance to any competitor of Gaussian, Inc.  The licensee
 of this program is prohibited from giving any competitor of
 Gaussian, Inc. access to this program.  By using this program,
 the user acknowledges that Gaussian, Inc. is engaged in the
 business of creating and licensing software in the field of
 computational chemistry and represents and warrants to the
 licensee that it is not a competitor of Gaussian, Inc. and that
 it will not use this program in any manner prohibited above.
 ---------------------------------------------------------------
  

 Cite this work as:
 Gaussian 16, Revision C.01,
 M. J. Frisch, G. W. Trucks, H. B. Schlegel, G. E. Scuseria, 
 M. A. Robb, J. R. Cheeseman, G. Scalmani, V. Barone, 
 G. A. Petersson, H. Nakatsuji, X. Li, M. Caricato, A. V. Marenich, 
 J. Bloino, B. G. Janesko, R. Gomperts, B. Mennucci, H. P. Hratchian, 
 J. V. Ortiz, A. F. Izmaylov, J. L. Sonnenberg, D. Williams-Young, 
 F. Ding, F. Lipparini, F. Egidi, J. Goings, B. Peng, A. Petrone, 
 T. Henderson, D. Ranasinghe, V. G. Zakrzewski, J. Gao, N. Rega, 
 G. Zheng, W. Liang, M. Hada, M. Ehara, K. Toyota, R. Fukuda, 
 J. Hasegawa, M. Ishida, T. Nakajima, Y. Honda, O. Kitao, H. Nakai, 
 T. Vreven, K. Throssell, J. A. Montgomery, Jr., J. E. Peralta, 
 F. Ogliaro, M. J. Bearpark, J. J. Heyd, E. N. Brothers, K. N. Kudin, 
 V. N. Staroverov, T. A. Keith, R. Kobayashi, J. Normand, 
 K. Raghavachari, A. P. Rendell, J. C. Burant, S. S. Iyengar, 
 J. Tomasi, M. Cossi, J. M. Millam, M. Klene, C. Adamo, R. Cammi, 
 J. W. Ochterski, R. L. Martin, K. Morokuma, O. Farkas, 
 J. B. Foresman, and D. J. Fox, Gaussian, Inc., Wallingford CT, 2019.
 
 ******************************************
 Gaussian 16:  ES64L-G16RevC.01  3-Jul-2019
                 7-Jan-2022 
 ******************************************
 %chk=NCCONCCOCCCNCCOCCCNCCOCCNCCNNCCONCCOCCCNCCOCOCNCCOCOCNCCOCCCNCCOCO_1.chk
 %nproc=56
 Will use up to   56 processors via shared memory.
 %mem=3gb
 ---------------------------------
 #p int=acc2e=12 pm6 charge nosymm
 ---------------------------------
 1/18=10,28=-2,38=1,125=101,172=1/1;
 2/12=2,15=1,17=6,18=5,40=1/2;
 3/5=2,25=1,27=12,41=3900000/1,2,3;
 4/35=1/1;
 5/5=2,35=1,38=5,87=12/2;
 6/7=2,8=2,9=2,10=2,28=1,87=12/1;
 99/5=1,9=1/99;
 Leave Link    1 at Fri Jan  7 12:00:13 2022, MaxMem=   402653184 cpu:               2.4 elap:               0.4
 (Enter /work/01114/jfonner/frontera/gaussian/16rC.01/g16/l101.exe)
 --------------
 Atom number=15
 --------------
 Symbolic Z-matrix:
 Charge =  3 Multiplicity = 1
 n                    -6.81501  -0.668     1.60701 
 c                    -5.71399   0.002     2.37299 
 c                    -4.35699  -0.673     2.58799 
 o                    -4.21199  -1.86999   2.49199 
 n                    -3.381     0.12499   2.953 
 c                    -2.062    -0.39      3.274 
 c                    -1.63601   0.175     4.60001 
 o                    -1.74401   1.356     4.86199 
 n                    -1.095    -0.7       5.415 
 c                    -0.572    -0.31101   6.669 
 c                    -0.993    -0.045     2.197 
 c                     0.39     -0.48799   2.64 
 c                    -1.378    -0.66199   0.89701 
 h                     0.42342  -0.6938    6.75571 
 h                    -1.15902  -0.7322    7.45824 
 
 ITRead=  0  0  0  0  0  0  0  0  0  0  0  0  0  0  0
 MicOpt= -1 -1 -1 -1 -1 -1 -1 -1 -1 -1 -1 -1 -1 -1 -1
 NAtoms=     15 NQM=       15 NQMF=       0 NMMI=      0 NMMIF=      0
                NMic=       0 NMicF=      0.
                    Isotopes and Nuclear Properties:
 (Nuclear quadrupole moments (NQMom) in fm**2, nuclear magnetic moments (NMagM)
  in nuclear magnetons)

  Atom         1           2           3           4           5           6           7           8           9          10
 IAtWgt=          14          12          12          16          14          12          12          16          14          12
 AtmWgt=  14.0030740  12.0000000  12.0000000  15.9949146  14.0030740  12.0000000  12.0000000  15.9949146  14.0030740  12.0000000
 NucSpn=           2           0           0           0           2           0           0           0           2           0
 AtZEff=  -0.0000000  -0.0000000  -0.0000000  -0.0000000  -0.0000000  -0.0000000  -0.0000000  -0.0000000  -0.0000000  -0.0000000
 NQMom=    2.0440000   0.0000000   0.0000000   0.0000000   2.0440000   0.0000000   0.0000000   0.0000000   2.0440000   0.0000000
 NMagM=    0.4037610   0.0000000   0.0000000   0.0000000   0.4037610   0.0000000   0.0000000   0.0000000   0.4037610   0.0000000
 AtZNuc=   7.0000000   6.0000000   6.0000000   8.0000000   7.0000000   6.0000000   6.0000000   8.0000000   7.0000000   6.0000000

  Atom        11          12          13          14          15
 IAtWgt=          12          12          12           1           1
 AtmWgt=  12.0000000  12.0000000  12.0000000   1.0078250   1.0078250
 NucSpn=           0           0           0           1           1
 AtZEff=  -0.0000000  -0.0000000  -0.0000000  -0.0000000  -0.0000000
 NQMom=    0.0000000   0.0000000   0.0000000   0.0000000   0.0000000
 NMagM=    0.0000000   0.0000000   0.0000000   2.7928460   2.7928460
 AtZNuc=   6.0000000   6.0000000   6.0000000   1.0000000   1.0000000
 Background charge distribution read from input stream:
 Point Charges:
 XYZ=    0.8400   -0.8540    6.7920 Q=    0.2936 A=    0.0000 R=    0.0000 C=    0.0000
 XYZ=    1.0270   -2.0220    6.7200 Q=   -0.4614 A=    0.0000 R=    0.0000 C=    0.0000
 XYZ=   -1.4110   -0.9130    7.7970 Q=   -1.2094 A=    0.0000 R=    0.0000 C=    0.0000
 XYZ=   -0.7270   -0.6450    9.1230 Q=    0.9838 A=    0.0000 R=    0.0000 C=    0.0000
 XYZ=   -2.8000   -0.3490    7.7890 Q=    0.9737 A=    0.0000 R=    0.0000 C=    0.0000
 XYZ=    1.8100    0.0020    7.0230 Q=   -0.6094 A=    0.0000 R=    0.0000 C=    0.0000
 XYZ=    3.1910   -0.4290    7.1010 Q=   -0.0383 A=    0.0000 R=    0.0000 C=    0.0000
 XYZ=    3.9110    0.2580    8.2290 Q=    0.2652 A=    0.0000 R=    0.0000 C=    0.0000
 XYZ=    4.0640    1.4780    8.2280 Q=   -0.5489 A=    0.0000 R=    0.0000 C=    0.0000
 XYZ=    3.8710   -0.1030    5.7480 Q=    0.4467 A=    0.0000 R=    0.0000 C=    0.0000
 XYZ=    5.2470   -0.6430    5.5810 Q=   -0.4177 A=    0.0000 R=    0.0000 C=    0.0000
 XYZ=    5.8610   -0.6890    4.3530 Q=   -0.2968 A=    0.0000 R=    0.0000 C=    0.0000
 XYZ=    6.1080   -1.1970    6.4480 Q=    0.2630 A=    0.0000 R=    0.0000 C=    0.0000
 XYZ=    7.0590   -1.2270    4.4820 Q=    0.6103 A=    0.0000 R=    0.0000 C=    0.0000
 XYZ=    7.2390   -1.5230    5.7510 Q=   -0.3347 A=    0.0000 R=    0.0000 C=    0.0000
 XYZ=    4.3640   -0.5270    9.1890 Q=   -0.5070 A=    0.0000 R=    0.0000 C=    0.0000
 XYZ=    5.0670    0.0200   10.3260 Q=    0.3996 A=    0.0000 R=    0.0000 C=    0.0000
 XYZ=    4.2710    0.8170   11.2960 Q=    0.1621 A=    0.0000 R=    0.0000 C=    0.0000
 XYZ=    4.3590    2.0330   11.3670 Q=   -0.2980 A=    0.0000 R=    0.0000 C=    0.0000
 XYZ=    3.4920    0.1040   12.0730 Q=   -0.4667 A=    0.0000 R=    0.0000 C=    0.0000
 XYZ=    2.5850    0.6770   13.0850 Q=    0.2746 A=    0.0000 R=    0.0000 C=    0.0000
 XYZ=    3.0060    0.0470   14.3610 Q=    0.2391 A=    0.0000 R=    0.0000 C=    0.0000
 XYZ=    2.9580   -1.1690   14.5150 Q=   -0.4626 A=    0.0000 R=    0.0000 C=    0.0000
 XYZ=    1.1270    0.3300   12.8270 Q=   -1.2217 A=    0.0000 R=    0.0000 C=    0.0000
 XYZ=    0.2480    0.6750   14.0380 Q=    0.9822 A=    0.0000 R=    0.0000 C=    0.0000
 XYZ=    0.6740    1.0470   11.5960 Q=    0.9278 A=    0.0000 R=    0.0000 C=    0.0000
 XYZ=    3.4810    0.8870   15.2620 Q=   -0.6284 A=    0.0000 R=    0.0000 C=    0.0000
 XYZ=    4.1630    0.3920   16.4420 Q=    0.1821 A=    0.0000 R=    0.0000 C=    0.0000
 XYZ=    3.4240    0.9650   17.6310 Q=    0.3166 A=    0.0000 R=    0.0000 C=    0.0000
 XYZ=    3.1360    2.1100   17.6120 Q=   -0.5694 A=    0.0000 R=    0.0000 C=    0.0000
 XYZ=    5.6880    0.7500   16.3890 Q=   -0.3175 A=    0.0000 R=    0.0000 C=    0.0000
 XYZ=    6.2640    0.1300   15.2360 Q=   -0.3082 A=    0.0000 R=    0.0000 C=    0.0000
 XYZ=    6.4200    0.2100   17.5690 Q=    0.9463 A=    0.0000 R=    0.0000 C=    0.0000
 XYZ=    3.1730    0.1290   18.6470 Q=   -0.5421 A=    0.0000 R=    0.0000 C=    0.0000
 XYZ=    2.5590    0.5160   19.9030 Q=    0.0236 A=    0.0000 R=    0.0000 C=    0.0000
 XYZ=    3.3500   -0.1220   21.0140 Q=    0.1847 A=    0.0000 R=    0.0000 C=    0.0000
 XYZ=    3.3660   -1.3390   21.1400 Q=   -0.4163 A=    0.0000 R=    0.0000 C=    0.0000
 XYZ=    1.1380   -0.0210   19.9830 Q=   -0.2907 A=    0.0000 R=    0.0000 C=    0.0000
 XYZ=    0.3930    0.3940   18.8240 Q=   -0.3415 A=    0.0000 R=    0.0000 C=    0.0000
 XYZ=    0.4860    0.5010   21.1670 Q=    0.7765 A=    0.0000 R=    0.0000 C=    0.0000
 XYZ=    4.0670    0.6880   21.7680 Q=   -0.6191 A=    0.0000 R=    0.0000 C=    0.0000
 XYZ=    4.8880    0.2050   22.8510 Q=    0.2833 A=    0.0000 R=    0.0000 C=    0.0000
 XYZ=    4.3500    0.7690   24.1740 Q=    0.1730 A=    0.0000 R=    0.0000 C=    0.0000
 XYZ=    4.1610    1.9810   24.2690 Q=   -0.2861 A=    0.0000 R=    0.0000 C=    0.0000
 XYZ=    6.3620    0.6140   22.6520 Q=   -1.1933 A=    0.0000 R=    0.0000 C=    0.0000
 XYZ=    7.1520    0.2970   23.8740 Q=    0.8585 A=    0.0000 R=    0.0000 C=    0.0000
 XYZ=    6.9530   -0.1210   21.4550 Q=    0.9590 A=    0.0000 R=    0.0000 C=    0.0000
 XYZ=    4.0650   -0.1200   25.1510 Q=   -0.4907 A=    0.0000 R=    0.0000 C=    0.0000
 XYZ=    3.7200    0.3130   26.5150 Q=   -0.3576 A=    0.0000 R=    0.0000 C=    0.0000
 XYZ=    4.9410    0.1400   27.4200 Q=    0.0549 A=    0.0000 R=    0.0000 C=    0.0000
 XYZ=    5.7140   -0.8090   27.2870 Q=   -0.0565 A=    0.0000 R=    0.0000 C=    0.0000
 XYZ=    2.4990   -0.4220   27.0620 Q=    1.1023 A=    0.0000 R=    0.0000 C=    0.0000
 XYZ=    5.2500    0.9550   28.2940 Q=    0.3115 A=    0.0000 R=    0.0000 C=    0.0000
 Pt Chg Charge=             -0.2957 electrons
 Pt Chg Dipole moment (Debye):
    X=            -17.4146    Y=             -2.9113    Z=             40.5470  Tot=             44.2245
 Pt Chg Quadrupole moment (Debye-Ang):
   XX=            180.9663   YY=            -39.8015   ZZ=           2085.2650
   XY=            -54.3571   XZ=            104.9179   YZ=           -110.1115
 Pt Chg Traceless Quadrupole moment (Debye-Ang):
   XX=           -561.1770   YY=           -781.9448   ZZ=           1343.1218
   XY=            -54.3571   XZ=            104.9179   YZ=           -110.1115
 Pt Chg Octapole moment (Debye-Ang**2):
  XXX=           1814.1699  YYY=            -23.2086  ZZZ=          71455.0360  XYY=           -136.9116
  XXY=           -274.9468  XXZ=           4369.7767  XZZ=           9000.0358  YZZ=          -2857.7835
  YYZ=           -567.2116  XYZ=           -863.8951
 Pt Chg Hexadecapole moment (Debye-Ang**3):
 XXXX=          16915.5047 YYYY=           -156.4774 ZZZZ=        2200030.1463 XXXY=          -1339.0529
 XXXZ=          40923.0521 YYYX=           -177.8686 YYYZ=           -556.2948 ZZZX=         308743.7402
 ZZZY=         -67593.9794 XXYY=           -525.1086 XXZZ=         109867.7612 YYZZ=          -9340.2679
 XXYZ=          -3900.9368 YYXZ=          -2216.5327 ZZXY=         -15805.9398
 Leave Link  101 at Fri Jan  7 12:00:14 2022, MaxMem=   402653184 cpu:               7.1 elap:               1.3
 (Enter /work/01114/jfonner/frontera/gaussian/16rC.01/g16/l202.exe)
                          Input orientation:                          
 ---------------------------------------------------------------------
 Center     Atomic      Atomic             Coordinates (Angstroms)
 Number     Number       Type             X           Y           Z
 ---------------------------------------------------------------------
      1          7           0       -6.815008   -0.668002    1.607014
      2          6           0       -5.713988    0.002003    2.372991
      3          6           0       -4.356992   -0.672999    2.587993
      4          8           0       -4.211992   -1.869995    2.491990
      5          7           0       -3.381001    0.124990    2.952998
      6          6           0       -2.062005   -0.390005    3.273999
      7          6           0       -1.636007    0.174996    4.600007
      8          8           0       -1.744008    1.356000    4.861991
      9          7           0       -1.095000   -0.700005    5.415005
     10          6           0       -0.571995   -0.311006    6.668998
     11          6           0       -0.992999   -0.045002    2.197002
     12          6           0        0.390000   -0.487990    2.640005
     13          6           0       -1.378002   -0.661989    0.897010
     14          1           0        0.423418   -0.693802    6.755712
     15          1           0       -1.159023   -0.732197    7.458236
 ---------------------------------------------------------------------
                    Distance matrix (angstroms):
                    1          2          3          4          5
     1  N    0.000000
     2  C    1.499291   0.000000
     3  C    2.646543   1.530781   0.000000
     4  O    3.000610   2.403025   1.209562   0.000000
     5  N    3.772654   2.407148   1.312469   2.209760   0.000000
     6  C    5.044518   3.781860   2.411982   2.724767   1.451900
     7  C    6.040754   4.649673   3.488704   3.906587   2.400030
     8  O    6.356611   4.877414   4.014423   4.702647   2.799890
     9  N    6.871703   5.575097   4.316632   4.430409   3.459464
    10  C    8.045268   6.707737   5.577799   5.755642   4.678596
    11  C    5.884896   4.724501   3.444373   3.712079   2.510574
    12  C    7.280907   6.129442   4.750881   4.807304   3.833296
    13  C    5.483173   4.628194   3.425482   3.469112   2.976311
    14  H    8.882824   7.573647   6.342131   6.407010   5.441016
    15  H    8.138248   6.866329   5.826644   5.939596   5.095991
                    6          7          8          9         10
     6  C    0.000000
     7  C    1.502996   0.000000
     8  O    2.381465   1.214525   0.000000
     9  N    2.369620   1.312454   2.225801   0.000000
    10  C    3.708421   2.376771   2.723564   1.413278   0.000000
    11  C    1.556189   2.497257   3.103061   3.285571   4.499640
    12  C    2.534536   2.895835   3.590475   3.154489   4.146028
    13  C    2.488355   3.805167   4.464002   4.527008   5.838551
    14  H    4.288582   3.105334   3.533497   2.025618   1.070000
    15  H    4.294218   3.036443   3.382789   2.044488   1.070000
                   11         12         13         14         15
    11  C    0.000000
    12  C    1.518281   0.000000
    13  C    1.489590   2.488802   0.000000
    14  H    4.817574   4.120985   6.129478   0.000000
    15  H    5.308520   5.066997   6.565254   1.731801   0.000000
 Symmetry turned off by external request.
 Stoichiometry    C8H2N3O2(3+)
 Framework group  C1[X(C8H2N3O2)]
 Deg. of freedom    39
 Full point group                 C1      NOp   1
 Rotational constants (GHZ):           1.3778515           0.5109413           0.4262076
 Leave Link  202 at Fri Jan  7 12:00:15 2022, MaxMem=   402653184 cpu:               3.0 elap:               0.5
 (Enter /work/01114/jfonner/frontera/gaussian/16rC.01/g16/l301.exe)
 Standard basis: VSTO-6G (5D, 7F)
 Ernie: Thresh=  0.10000D-02 Tol=  0.10000D-05 Strict=F.
  NNHCO=     0 NNPyr=     0 NCTC=     0               EPep=         0.000000000
    EC=       274.556291240  ECS=         3.365096885   EG=         0.351711576
   EHC=         0.001144737  EAt=       -75.086781620  AtH=         3.074761544
 EPDDG=         0.000000000  ECC=       278.274244438 EAtT=        78.161543164
    54 basis functions,   324 primitive gaussians,    54 cartesian basis functions
    29 alpha electrons       29 beta electrons
       nuclear repulsion energy       356.4357876017 Hartrees.
 IExCor=    0 DFT=F Ex=HF Corr=None ExCW=0 ScaHFX=  1.000000
 ScaDFX=  1.000000  1.000000  1.000000  1.000000 ScalE2=  1.000000  1.000000
 IRadAn=      5 IRanWt=     -1 IRanGd=            0 ICorTp=0 IEmpDi=  4
 Integral buffers will be    131072 words long.
 Regular integral format.
 Two-electron integral symmetry is turned off.
 Background charge distribution read from rwf.
 PtFMM for NChg=        68 BoxLen=    40.00 Levels= 1 LMax=20 SMax=    51.8 ICnFMM=     1:
 Self energy of the charges =        -3.1347233636 a.u.
 MM   energy of the charges =         0.0000000000 a.u.
 Nuclei-charges interaction =        -3.6764426977 a.u.
 Nuclear repulsion after external point charges =      349.6246215403 Hartrees.
 Leave Link  301 at Fri Jan  7 12:00:16 2022, MaxMem=   402653184 cpu:               4.8 elap:               0.9
 (Enter /work/01114/jfonner/frontera/gaussian/16rC.01/g16/l302.exe)
 Do NDO integrals.
 NPDir=0 NMtPBC=     1 NCelOv=     1 NCel=       1 NClECP=     1 NCelD=      1
         NCelK=      1 NCelE2=     1 NClLst=     1 CellRange=     0.0.
 One-electron integrals computed using PRISM.
 NBasis=    54 RedAO= F EigKep=  0.00D+00  NBF=    54
 NBsUse=    54 1.00D-04 EigRej=  0.00D+00 NBFU=    54
 Leave Link  302 at Fri Jan  7 12:00:19 2022, MaxMem=   402653184 cpu:              20.6 elap:               3.7
 (Enter /work/01114/jfonner/frontera/gaussian/16rC.01/g16/l303.exe)
 DipDrv:  MaxL=1.
 Leave Link  303 at Fri Jan  7 12:00:20 2022, MaxMem=   402653184 cpu:               3.5 elap:               0.6
 (Enter /work/01114/jfonner/frontera/gaussian/16rC.01/g16/l401.exe)
 Simple Huckel Guess.
 JPrj=0 DoOrth=F DoCkMO=F.
 Leave Link  401 at Fri Jan  7 12:00:22 2022, MaxMem=   402653184 cpu:              11.4 elap:               2.0
 (Enter /work/01114/jfonner/frontera/gaussian/16rC.01/g16/l502.exe)
 Keep J ints in memory in canonical form, NReq=868557.
 FoFCou: FMM=F IPFlag=           0 FMFlag=           0 FMFlg1=           0
         NFxFlg=           0 DoJE=F BraDBF=F KetDBF=F FulRan=T
         wScrn=  0.000000 ICntrl=       600 IOpCl=  2 I1Cent=           0 NGrid=           0
         NMat0=    1 NMatS0=    132 NMatT0=    0 NMatD0=    1 NMtDS0=    0 NMtDT0=    0
 Symmetry not used in FoFCou.
 Two-electron integral symmetry not used.
 Closed shell SCF:
 Using DIIS extrapolation, IDIIS=  1040.
 Overlap will be assumed to be unity.
 NGot=   402653184 LenX=   402575458 LenY=   402572101
 Requested convergence on RMS density matrix=1.00D-08 within 128 cycles.
 Requested convergence on MAX density matrix=1.00D-06.
 Requested convergence on             energy=1.00D-06.
 No special actions if energy rises.

 Cycle   1  Pass 1  IDiag  1:
 E=-0.273806891675179    
 DIIS: error= 7.97D-02 at cycle   1 NSaved=   1.
 NSaved= 1 IEnMin= 1 EnMin=-0.273806891675179     IErMin= 1 ErrMin= 7.97D-02
 ErrMax= 7.97D-02  0.00D+00 EMaxC= 1.00D-01 BMatC= 3.00D-01 BMatP= 3.00D-01
 IDIUse=3 WtCom= 2.03D-01 WtEn= 7.97D-01
 Coeff-Com:  0.100D+01
 Coeff-En:   0.100D+01
 Coeff:      0.100D+01
 GapD=    2.000 DampG=2.000 DampE=0.500 DampFc=1.0000 IDamp=-1.
 RMSDP=4.67D-02 MaxDP=6.79D-01              OVMax= 0.00D+00

 Cycle   2  Pass 1  IDiag  1:
 E=  1.38673224055356     Delta-E=        1.660539132229 Rises=F Damp=F
 DIIS: error= 7.05D-02 at cycle   2 NSaved=   2.
 NSaved= 2 IEnMin= 1 EnMin=-0.273806891675179     IErMin= 2 ErrMin= 7.05D-02
 ErrMax= 7.05D-02  0.00D+00 EMaxC= 1.00D-01 BMatC= 6.73D-01 BMatP= 3.00D-01
 IDIUse=2 WtCom= 0.00D+00 WtEn= 1.00D+00
 Coeff-En:   0.753D+00 0.247D+00
 Coeff:      0.753D+00 0.247D+00
 RMSDP=3.85D-02 MaxDP=5.81D-01 DE= 1.66D+00 OVMax= 0.00D+00

 Cycle   3  Pass 1  IDiag  1:
 E= -1.38430037165011     Delta-E=       -2.771032612204 Rises=F Damp=F
 DIIS: error= 2.21D-02 at cycle   3 NSaved=   3.
 NSaved= 3 IEnMin= 3 EnMin= -1.38430037165011     IErMin= 3 ErrMin= 2.21D-02
 ErrMax= 2.21D-02  0.00D+00 EMaxC= 1.00D-01 BMatC= 4.61D-02 BMatP= 3.00D-01
 IDIUse=3 WtCom= 7.79D-01 WtEn= 2.21D-01
 Coeff-Com:  0.584D-01 0.474D-01 0.894D+00
 Coeff-En:   0.000D+00 0.000D+00 0.100D+01
 Coeff:      0.455D-01 0.369D-01 0.918D+00
 RMSDP=3.71D-02 MaxDP=7.16D-01 DE=-2.77D+00 OVMax= 0.00D+00

 Cycle   4  Pass 1  IDiag  1:
 E= 0.713096898745107     Delta-E=        2.097397270395 Rises=F Damp=F
 DIIS: error= 4.98D-02 at cycle   4 NSaved=   4.
 NSaved= 4 IEnMin= 3 EnMin= -1.38430037165011     IErMin= 3 ErrMin= 2.21D-02
 ErrMax= 4.98D-02  0.00D+00 EMaxC= 1.00D-01 BMatC= 2.38D-01 BMatP= 4.61D-02
 IDIUse=2 WtCom= 0.00D+00 WtEn= 1.00D+00
 Coeff-En:   0.000D+00 0.000D+00 0.897D+00 0.103D+00
 Coeff:      0.000D+00 0.000D+00 0.897D+00 0.103D+00
 RMSDP=3.18D-02 MaxDP=6.55D-01 DE= 2.10D+00 OVMax= 0.00D+00

 Cycle   5  Pass 1  IDiag  1:
 E= -1.59263729006739     Delta-E=       -2.305734188812 Rises=F Damp=F
 DIIS: error= 9.12D-03 at cycle   5 NSaved=   5.
 NSaved= 5 IEnMin= 5 EnMin= -1.59263729006739     IErMin= 5 ErrMin= 9.12D-03
 ErrMax= 9.12D-03  0.00D+00 EMaxC= 1.00D-01 BMatC= 8.06D-03 BMatP= 4.61D-02
 IDIUse=3 WtCom= 9.09D-01 WtEn= 9.12D-02
 Coeff-Com: -0.705D-01 0.221D-02 0.153D+00-0.342D-01 0.950D+00
 Coeff-En:   0.000D+00 0.000D+00 0.000D+00 0.000D+00 0.100D+01
 Coeff:     -0.641D-01 0.201D-02 0.139D+00-0.311D-01 0.954D+00
 RMSDP=4.38D-03 MaxDP=4.65D-02 DE=-2.31D+00 OVMax= 0.00D+00

 Cycle   6  Pass 1  IDiag  3:
 E= -1.62649155800557     Delta-E=       -0.033854267938 Rises=F Damp=F
 DIIS: error= 4.82D-03 at cycle   6 NSaved=   6.
 NSaved= 6 IEnMin= 6 EnMin= -1.62649155800557     IErMin= 6 ErrMin= 4.82D-03
 ErrMax= 4.82D-03  0.00D+00 EMaxC= 1.00D-01 BMatC= 1.08D-03 BMatP= 8.06D-03
 IDIUse=3 WtCom= 9.52D-01 WtEn= 4.82D-02
 Coeff-Com:  0.691D-03 0.272D-02-0.453D-01-0.861D-02-0.117D+00 0.117D+01
 Coeff-En:   0.000D+00 0.000D+00 0.000D+00 0.000D+00 0.000D+00 0.100D+01
 Coeff:      0.658D-03 0.259D-02-0.431D-01-0.819D-02-0.111D+00 0.116D+01
 Gap=     0.104 Goal=   None    Shift=    0.000
 RMSDP=2.88D-03 MaxDP=3.45D-02 DE=-3.39D-02 OVMax= 7.43D-02

 Cycle   7  Pass 1  IDiag  3:
 E= -1.63326492008520     Delta-E=       -0.006773362080 Rises=F Damp=F
 DIIS: error= 1.64D-03 at cycle   7 NSaved=   7.
 NSaved= 7 IEnMin= 7 EnMin= -1.63326492008520     IErMin= 7 ErrMin= 1.64D-03
 ErrMax= 1.64D-03  0.00D+00 EMaxC= 1.00D-01 BMatC= 3.16D-04 BMatP= 1.08D-03
 IDIUse=3 WtCom= 9.84D-01 WtEn= 1.64D-02
 Coeff-Com: -0.920D-03 0.145D-02-0.338D-01 0.103D-01-0.101D+00 0.222D+00
 Coeff-Com:  0.902D+00
 Coeff-En:   0.000D+00 0.000D+00 0.000D+00 0.000D+00 0.000D+00 0.000D+00
 Coeff-En:   0.100D+01
 Coeff:     -0.905D-03 0.143D-02-0.333D-01 0.101D-01-0.993D-01 0.218D+00
 Coeff:      0.904D+00
 Gap=     0.102 Goal=   None    Shift=    0.000
 RMSDP=1.26D-03 MaxDP=1.47D-02 DE=-6.77D-03 OVMax= 2.19D-02

 Cycle   8  Pass 1  IDiag  3:
 E= -1.63481533719425     Delta-E=       -0.001550417109 Rises=F Damp=F
 DIIS: error= 1.14D-03 at cycle   8 NSaved=   8.
 NSaved= 8 IEnMin= 8 EnMin= -1.63481533719425     IErMin= 8 ErrMin= 1.14D-03
 ErrMax= 1.14D-03  0.00D+00 EMaxC= 1.00D-01 BMatC= 1.94D-04 BMatP= 3.16D-04
 IDIUse=3 WtCom= 9.89D-01 WtEn= 1.14D-02
 Coeff-Com: -0.334D-03 0.269D-02-0.160D-01 0.940D-02 0.118D+00-0.820D-01
 Coeff-Com: -0.731D+00 0.170D+01
 Coeff-En:   0.000D+00 0.000D+00 0.000D+00 0.000D+00 0.000D+00 0.000D+00
 Coeff-En:   0.000D+00 0.100D+01
 Coeff:     -0.330D-03 0.266D-02-0.158D-01 0.929D-02 0.117D+00-0.810D-01
 Coeff:     -0.723D+00 0.169D+01
 Gap=     0.099 Goal=   None    Shift=    0.000
 RMSDP=1.05D-03 MaxDP=1.15D-02 DE=-1.55D-03 OVMax= 1.90D-02

 Cycle   9  Pass 1  IDiag  3:
 E= -1.63573788540288     Delta-E=       -0.000922548209 Rises=F Damp=F
 DIIS: error= 8.26D-04 at cycle   9 NSaved=   9.
 NSaved= 9 IEnMin= 9 EnMin= -1.63573788540288     IErMin= 9 ErrMin= 8.26D-04
 ErrMax= 8.26D-04  0.00D+00 EMaxC= 1.00D-01 BMatC= 9.85D-05 BMatP= 1.94D-04
 IDIUse=3 WtCom= 9.92D-01 WtEn= 8.26D-03
 Coeff-Com: -0.402D-02 0.299D-03-0.753D-02 0.208D-02-0.291D-01 0.211D+00
 Coeff-Com: -0.313D-02-0.142D+01 0.225D+01
 Coeff-En:   0.000D+00 0.000D+00 0.000D+00 0.000D+00 0.000D+00 0.000D+00
 Coeff-En:   0.000D+00 0.000D+00 0.100D+01
 Coeff:     -0.399D-02 0.296D-03-0.747D-02 0.206D-02-0.289D-01 0.209D+00
 Coeff:     -0.310D-02-0.140D+01 0.224D+01
 Gap=     0.098 Goal=   None    Shift=    0.000
 RMSDP=1.10D-03 MaxDP=8.59D-03 DE=-9.23D-04 OVMax= 1.80D-02

 Cycle  10  Pass 1  IDiag  3:
 E= -1.63643368165731     Delta-E=       -0.000695796254 Rises=F Damp=F
 DIIS: error= 1.95D-04 at cycle  10 NSaved=  10.
 NSaved=10 IEnMin=10 EnMin= -1.63643368165731     IErMin=10 ErrMin= 1.95D-04
 ErrMax= 1.95D-04  0.00D+00 EMaxC= 1.00D-01 BMatC= 3.42D-06 BMatP= 9.85D-05
 IDIUse=3 WtCom= 9.98D-01 WtEn= 1.95D-03
 Coeff-Com:  0.124D-02-0.222D-03 0.873D-03-0.628D-03-0.173D-01 0.413D-02
 Coeff-Com:  0.827D-01 0.472D-02-0.180D+00 0.110D+01
 Coeff-En:   0.000D+00 0.000D+00 0.000D+00 0.000D+00 0.000D+00 0.000D+00
 Coeff-En:   0.000D+00 0.000D+00 0.000D+00 0.100D+01
 Coeff:      0.123D-02-0.221D-03 0.872D-03-0.626D-03-0.173D-01 0.413D-02
 Coeff:      0.825D-01 0.471D-02-0.180D+00 0.110D+01
 Gap=     0.098 Goal=   None    Shift=    0.000
 RMSDP=2.02D-04 MaxDP=1.57D-03 DE=-6.96D-04 OVMax= 4.61D-03

 Cycle  11  Pass 1  IDiag  3:
 E= -1.63645969591914     Delta-E=       -0.000026014262 Rises=F Damp=F
 DIIS: error= 1.60D-04 at cycle  11 NSaved=  11.
 NSaved=11 IEnMin=11 EnMin= -1.63645969591914     IErMin=11 ErrMin= 1.60D-04
 ErrMax= 1.60D-04  0.00D+00 EMaxC= 1.00D-01 BMatC= 2.10D-06 BMatP= 3.42D-06
 IDIUse=3 WtCom= 9.98D-01 WtEn= 1.60D-03
 Coeff-Com: -0.267D-03-0.192D-03 0.101D-02-0.278D-03 0.963D-03-0.113D-02
 Coeff-Com: -0.222D-01-0.783D-01 0.230D+00-0.501D+00 0.137D+01
 Coeff-En:   0.000D+00 0.000D+00 0.000D+00 0.000D+00 0.000D+00 0.000D+00
 Coeff-En:   0.000D+00 0.000D+00 0.000D+00 0.000D+00 0.100D+01
 Coeff:     -0.267D-03-0.192D-03 0.101D-02-0.277D-03 0.962D-03-0.112D-02
 Coeff:     -0.222D-01-0.782D-01 0.230D+00-0.500D+00 0.137D+01
 Gap=     0.099 Goal=   None    Shift=    0.000
 RMSDP=1.44D-04 MaxDP=1.28D-03 DE=-2.60D-05 OVMax= 3.30D-03

 Cycle  12  Pass 1  IDiag  3:
 E= -1.63648061993763     Delta-E=       -0.000020924018 Rises=F Damp=F
 DIIS: error= 1.35D-04 at cycle  12 NSaved=  12.
 NSaved=12 IEnMin=12 EnMin= -1.63648061993763     IErMin=12 ErrMin= 1.35D-04
 ErrMax= 1.35D-04  0.00D+00 EMaxC= 1.00D-01 BMatC= 6.75D-07 BMatP= 2.10D-06
 IDIUse=3 WtCom= 9.99D-01 WtEn= 1.35D-03
 Coeff-Com: -0.102D-03 0.165D-04-0.254D-03 0.558D-04-0.194D-02 0.764D-02
 Coeff-Com:  0.102D-01-0.350D-01-0.354D-02 0.374D-01-0.946D+00 0.193D+01
 Coeff-En:   0.000D+00 0.000D+00 0.000D+00 0.000D+00 0.000D+00 0.000D+00
 Coeff-En:   0.000D+00 0.000D+00 0.000D+00 0.000D+00 0.000D+00 0.100D+01
 Coeff:     -0.101D-03 0.165D-04-0.253D-03 0.558D-04-0.193D-02 0.763D-02
 Coeff:      0.102D-01-0.349D-01-0.353D-02 0.373D-01-0.945D+00 0.193D+01
 Gap=     0.099 Goal=   None    Shift=    0.000
 RMSDP=2.18D-04 MaxDP=1.90D-03 DE=-2.09D-05 OVMax= 5.51D-03

 Cycle  13  Pass 1  IDiag  3:
 E= -1.63650089315689     Delta-E=       -0.000020273219 Rises=F Damp=F
 DIIS: error= 9.47D-05 at cycle  13 NSaved=  13.
 NSaved=13 IEnMin=13 EnMin= -1.63650089315689     IErMin=13 ErrMin= 9.47D-05
 ErrMax= 9.47D-05  0.00D+00 EMaxC= 1.00D-01 BMatC= 3.65D-07 BMatP= 6.75D-07
 IDIUse=1 WtCom= 1.00D+00 WtEn= 0.00D+00
 Coeff-Com:  0.157D-03 0.527D-04-0.596D-04 0.134D-03 0.161D-02-0.668D-02
 Coeff-Com:  0.348D-02 0.644D-01-0.135D+00 0.136D+00 0.321D+00-0.141D+01
 Coeff-Com:  0.202D+01
 Coeff:      0.157D-03 0.527D-04-0.596D-04 0.134D-03 0.161D-02-0.668D-02
 Coeff:      0.348D-02 0.644D-01-0.135D+00 0.136D+00 0.321D+00-0.141D+01
 Coeff:      0.202D+01
 Gap=     0.099 Goal=   None    Shift=    0.000
 RMSDP=2.27D-04 MaxDP=1.92D-03 DE=-2.03D-05 OVMax= 6.04D-03

 Cycle  14  Pass 1  IDiag  3:
 E= -1.63651584767780     Delta-E=       -0.000014954521 Rises=F Damp=F
 DIIS: error= 5.22D-05 at cycle  14 NSaved=  14.
 NSaved=14 IEnMin=14 EnMin= -1.63651584767780     IErMin=14 ErrMin= 5.22D-05
 ErrMax= 5.22D-05  0.00D+00 EMaxC= 1.00D-01 BMatC= 2.21D-07 BMatP= 3.65D-07
 IDIUse=1 WtCom= 1.00D+00 WtEn= 0.00D+00
 Coeff-Com:  0.384D-04 0.478D-05-0.638D-03-0.750D-05 0.227D-03 0.239D-02
 Coeff-Com: -0.504D-02 0.286D-03 0.173D-01-0.702D-01-0.103D+00 0.718D+00
 Coeff-Com: -0.173D+01 0.217D+01
 Coeff:      0.384D-04 0.478D-05-0.638D-03-0.750D-05 0.227D-03 0.239D-02
 Coeff:     -0.504D-02 0.286D-03 0.173D-01-0.702D-01-0.103D+00 0.718D+00
 Coeff:     -0.173D+01 0.217D+01
 Gap=     0.099 Goal=   None    Shift=    0.000
 RMSDP=2.01D-04 MaxDP=1.52D-03 DE=-1.50D-05 OVMax= 5.41D-03

 Cycle  15  Pass 1  IDiag  3:
 E= -1.63652533730851     Delta-E=       -0.000009489631 Rises=F Damp=F
 DIIS: error= 2.99D-05 at cycle  15 NSaved=  15.
 NSaved=15 IEnMin=15 EnMin= -1.63652533730851     IErMin=15 ErrMin= 2.99D-05
 ErrMax= 2.99D-05  0.00D+00 EMaxC= 1.00D-01 BMatC= 1.01D-07 BMatP= 2.21D-07
 IDIUse=1 WtCom= 1.00D+00 WtEn= 0.00D+00
 Coeff-Com: -0.308D-04 0.522D-05 0.229D-04-0.313D-04 0.119D-04 0.434D-03
 Coeff-Com: -0.499D-03-0.169D-02 0.384D-02-0.724D-02-0.566D-01 0.969D-01
 Coeff-Com:  0.145D+00-0.905D+00 0.173D+01
 Coeff:     -0.308D-04 0.522D-05 0.229D-04-0.313D-04 0.119D-04 0.434D-03
 Coeff:     -0.499D-03-0.169D-02 0.384D-02-0.724D-02-0.566D-01 0.969D-01
 Coeff:      0.145D+00-0.905D+00 0.173D+01
 Gap=     0.099 Goal=   None    Shift=    0.000
 RMSDP=1.37D-04 MaxDP=1.17D-03 DE=-9.49D-06 OVMax= 3.41D-03

 Cycle  16  Pass 1  IDiag  3:
 E= -1.63653031406085     Delta-E=       -0.000004976752 Rises=F Damp=F
 DIIS: error= 2.57D-05 at cycle  16 NSaved=  16.
 NSaved=16 IEnMin=16 EnMin= -1.63653031406085     IErMin=16 ErrMin= 2.57D-05
 ErrMax= 2.57D-05  0.00D+00 EMaxC= 1.00D-01 BMatC= 6.46D-08 BMatP= 1.01D-07
 IDIUse=1 WtCom= 1.00D+00 WtEn= 0.00D+00
 Coeff-Com: -0.516D-04 0.572D-05 0.166D-03-0.514D-04-0.405D-03 0.556D-03
 Coeff-Com:  0.110D-02-0.106D-01 0.152D-01-0.180D-01 0.234D-01 0.728D-02
 Coeff-Com: -0.200D-01 0.924D-01-0.780D+00 0.169D+01
 Coeff:     -0.516D-04 0.572D-05 0.166D-03-0.514D-04-0.405D-03 0.556D-03
 Coeff:      0.110D-02-0.106D-01 0.152D-01-0.180D-01 0.234D-01 0.728D-02
 Coeff:     -0.200D-01 0.924D-01-0.780D+00 0.169D+01
 Gap=     0.099 Goal=   None    Shift=    0.000
 RMSDP=1.06D-04 MaxDP=9.60D-04 DE=-4.98D-06 OVMax= 2.84D-03

 Cycle  17  Pass 1  IDiag  3:
 E= -1.63653381164505     Delta-E=       -0.000003497584 Rises=F Damp=F
 DIIS: error= 2.66D-05 at cycle  17 NSaved=  17.
 NSaved=17 IEnMin=17 EnMin= -1.63653381164505     IErMin=16 ErrMin= 2.57D-05
 ErrMax= 2.66D-05  0.00D+00 EMaxC= 1.00D-01 BMatC= 5.62D-08 BMatP= 6.46D-08
 IDIUse=1 WtCom= 1.00D+00 WtEn= 0.00D+00
 Coeff-Com: -0.324D-04 0.719D-05 0.113D-03-0.525D-04-0.273D-03 0.461D-03
 Coeff-Com: -0.134D-03-0.614D-02 0.124D-01-0.107D-01 0.103D-01-0.913D-02
 Coeff-Com:  0.102D-01 0.399D-01-0.115D+00-0.405D+00 0.147D+01
 Coeff:     -0.324D-04 0.719D-05 0.113D-03-0.525D-04-0.273D-03 0.461D-03
 Coeff:     -0.134D-03-0.614D-02 0.124D-01-0.107D-01 0.103D-01-0.913D-02
 Coeff:      0.102D-01 0.399D-01-0.115D+00-0.405D+00 0.147D+01
 Gap=     0.099 Goal=   None    Shift=    0.000
 RMSDP=8.55D-05 MaxDP=7.88D-04 DE=-3.50D-06 OVMax= 2.72D-03

 Cycle  18  Pass 1  IDiag  3:
 E= -1.63653660379077     Delta-E=       -0.000002792146 Rises=F Damp=F
 DIIS: error= 2.85D-05 at cycle  18 NSaved=  18.
 NSaved=18 IEnMin=18 EnMin= -1.63653660379077     IErMin=16 ErrMin= 2.57D-05
 ErrMax= 2.85D-05  0.00D+00 EMaxC= 1.00D-01 BMatC= 5.44D-08 BMatP= 5.62D-08
 IDIUse=1 WtCom= 1.00D+00 WtEn= 0.00D+00
 Coeff-Com: -0.369D-04 0.124D-04 0.882D-04-0.497D-04-0.391D-04 0.271D-03
 Coeff-Com: -0.111D-02-0.572D-02 0.144D-01-0.185D-01 0.210D-01-0.618D-02
 Coeff-Com: -0.366D-01 0.929D-01-0.103D+00-0.100D+00 0.822D-01 0.106D+01
 Coeff:     -0.369D-04 0.124D-04 0.882D-04-0.497D-04-0.391D-04 0.271D-03
 Coeff:     -0.111D-02-0.572D-02 0.144D-01-0.185D-01 0.210D-01-0.618D-02
 Coeff:     -0.366D-01 0.929D-01-0.103D+00-0.100D+00 0.822D-01 0.106D+01
 Gap=     0.099 Goal=   None    Shift=    0.000
 RMSDP=5.80D-05 MaxDP=5.32D-04 DE=-2.79D-06 OVMax= 1.98D-03

 Cycle  19  Pass 1  IDiag  3:
 E= -1.63653849580510     Delta-E=       -0.000001892014 Rises=F Damp=F
 DIIS: error= 2.88D-05 at cycle  19 NSaved=  19.
 NSaved=19 IEnMin=19 EnMin= -1.63653849580510     IErMin=16 ErrMin= 2.57D-05
 ErrMax= 2.88D-05  0.00D+00 EMaxC= 1.00D-01 BMatC= 5.36D-08 BMatP= 5.44D-08
 IDIUse=1 WtCom= 1.00D+00 WtEn= 0.00D+00
 Coeff-Com: -0.294D-04 0.132D-04 0.858D-04-0.448D-04-0.217D-04 0.237D-03
 Coeff-Com: -0.161D-02-0.376D-02 0.123D-01-0.146D-01 0.123D-01 0.241D-02
 Coeff-Com: -0.399D-01 0.608D-01-0.406D-01-0.585D-01 0.166D+00-0.225D+00
 Coeff-Com:  0.113D+01
 Coeff:     -0.294D-04 0.132D-04 0.858D-04-0.448D-04-0.217D-04 0.237D-03
 Coeff:     -0.161D-02-0.376D-02 0.123D-01-0.146D-01 0.123D-01 0.241D-02
 Coeff:     -0.399D-01 0.608D-01-0.406D-01-0.585D-01 0.166D+00-0.225D+00
 Coeff:      0.113D+01
 Gap=     0.099 Goal=   None    Shift=    0.000
 RMSDP=4.71D-05 MaxDP=4.31D-04 DE=-1.89D-06 OVMax= 1.66D-03

 Cycle  20  Pass 1  IDiag  3:
 E= -1.63654003422920     Delta-E=       -0.000001538424 Rises=F Damp=F
 DIIS: error= 2.93D-05 at cycle  20 NSaved=  20.
 NSaved=20 IEnMin=20 EnMin= -1.63654003422920     IErMin=16 ErrMin= 2.57D-05
 ErrMax= 2.93D-05  0.00D+00 EMaxC= 1.00D-01 BMatC= 5.29D-08 BMatP= 5.36D-08
 IDIUse=1 WtCom= 1.00D+00 WtEn= 0.00D+00
 Coeff-Com: -0.284D-04 0.120D-04 0.721D-04-0.434D-04-0.392D-04 0.308D-03
 Coeff-Com: -0.148D-02-0.390D-02 0.121D-01-0.130D-01 0.625D-02 0.101D-01
 Coeff-Com: -0.405D-01 0.524D-01-0.379D-01-0.472D-01 0.230D+00-0.231D+00
 Coeff-Com:  0.324D+00 0.739D+00
 Coeff:     -0.284D-04 0.120D-04 0.721D-04-0.434D-04-0.392D-04 0.308D-03
 Coeff:     -0.148D-02-0.390D-02 0.121D-01-0.130D-01 0.625D-02 0.101D-01
 Coeff:     -0.405D-01 0.524D-01-0.379D-01-0.472D-01 0.230D+00-0.231D+00
 Coeff:      0.324D+00 0.739D+00
 Gap=     0.099 Goal=   None    Shift=    0.000
 RMSDP=2.61D-05 MaxDP=2.36D-04 DE=-1.54D-06 OVMax= 9.28D-04

 Cycle  21  Pass 1  IDiag  3:
 E= -1.63654088515830     Delta-E=       -0.000000850929 Rises=F Damp=F
 DIIS: error= 2.93D-05 at cycle  21 NSaved=  20.
 NSaved=20 IEnMin=20 EnMin= -1.63654088515830     IErMin=15 ErrMin= 2.57D-05
 ErrMax= 2.93D-05  0.00D+00 EMaxC= 1.00D-01 BMatC= 5.31D-08 BMatP= 5.29D-08
 IDIUse=1 WtCom= 1.00D+00 WtEn= 0.00D+00
 Coeff-Com: -0.281D-04 0.764D-04-0.400D-04-0.103D-03 0.433D-03-0.127D-02
 Coeff-Com: -0.422D-02 0.122D-01-0.114D-01 0.670D-02 0.510D-02-0.405D-01
 Coeff-Com:  0.520D-01-0.165D-01-0.640D-01 0.231D+00-0.910D-01-0.846D-03
 Coeff-Com: -0.747D-01 0.998D+00
 Coeff:     -0.281D-04 0.764D-04-0.400D-04-0.103D-03 0.433D-03-0.127D-02
 Coeff:     -0.422D-02 0.122D-01-0.114D-01 0.670D-02 0.510D-02-0.405D-01
 Coeff:      0.520D-01-0.165D-01-0.640D-01 0.231D+00-0.910D-01-0.846D-03
 Coeff:     -0.747D-01 0.998D+00
 Gap=     0.099 Goal=   None    Shift=    0.000
 RMSDP=2.55D-05 MaxDP=2.27D-04 DE=-8.51D-07 OVMax= 9.26D-04

 Cycle  22  Pass 1  IDiag  3:
 E= -1.63654171686750     Delta-E=       -0.000000831709 Rises=F Damp=F
 DIIS: error= 2.98D-05 at cycle  22 NSaved=  20.
 NSaved=20 IEnMin=20 EnMin= -1.63654171686750     IErMin=14 ErrMin= 2.57D-05
 ErrMax= 2.98D-05  0.00D+00 EMaxC= 1.00D-01 BMatC= 5.36D-08 BMatP= 5.29D-08
 IDIUse=1 WtCom= 1.00D+00 WtEn= 0.00D+00
 Coeff-Com: -0.272D-04 0.927D-04-0.101D-03 0.308D-03-0.164D-02-0.267D-02
 Coeff-Com:  0.109D-01-0.110D-01 0.610D-02-0.395D-02-0.225D-01 0.412D-01
 Coeff-Com: -0.137D-02-0.776D-01 0.223D+00-0.104D+00-0.930D-01 0.321D-01
 Coeff-Com:  0.147D+01-0.466D+00
 Coeff:     -0.272D-04 0.927D-04-0.101D-03 0.308D-03-0.164D-02-0.267D-02
 Coeff:      0.109D-01-0.110D-01 0.610D-02-0.395D-02-0.225D-01 0.412D-01
 Coeff:     -0.137D-02-0.776D-01 0.223D+00-0.104D+00-0.930D-01 0.321D-01
 Coeff:      0.147D+01-0.466D+00
 Gap=     0.099 Goal=   None    Shift=    0.000
 RMSDP=5.47D-06 MaxDP=4.92D-05 DE=-8.32D-07 OVMax= 1.87D-04

 Cycle  23  Pass 1  IDiag  3:
 E= -1.63654158204122     Delta-E=        0.000000134826 Rises=F Damp=F
 DIIS: error= 2.89D-05 at cycle  23 NSaved=  20.
 NSaved=20 IEnMin=19 EnMin= -1.63654171686750     IErMin=13 ErrMin= 2.57D-05
 ErrMax= 2.89D-05  0.00D+00 EMaxC= 1.00D-01 BMatC= 5.03D-08 BMatP= 5.29D-08
 IDIUse=1 WtCom= 1.00D+00 WtEn= 0.00D+00
 Coeff-Com:  0.798D-04-0.118D-03 0.244D-04-0.124D-02 0.481D-03 0.373D-02
 Coeff-Com: -0.251D-02 0.548D-02-0.143D-01-0.395D-02 0.194D-01 0.908D-02
 Coeff-Com: -0.881D-01 0.221D+00-0.933D-01 0.412D-01 0.548D-01 0.806D+00
 Coeff-Com: -0.754D+00 0.796D+00
 Coeff:      0.798D-04-0.118D-03 0.244D-04-0.124D-02 0.481D-03 0.373D-02
 Coeff:     -0.251D-02 0.548D-02-0.143D-01-0.395D-02 0.194D-01 0.908D-02
 Coeff:     -0.881D-01 0.221D+00-0.933D-01 0.412D-01 0.548D-01 0.806D+00
 Coeff:     -0.754D+00 0.796D+00
 Gap=     0.099 Goal=   None    Shift=    0.000
 RMSDP=1.22D-06 MaxDP=9.64D-06 DE= 1.35D-07 OVMax= 3.33D-05

 Cycle  24  Pass 1  IDiag  3:
 E= -1.63654160727316     Delta-E=       -0.000000025232 Rises=F Damp=F
 DIIS: error= 2.90D-05 at cycle  24 NSaved=  20.
 NSaved=20 IEnMin=18 EnMin= -1.63654171686750     IErMin=12 ErrMin= 2.57D-05
 ErrMax= 2.90D-05  0.00D+00 EMaxC= 1.00D-01 BMatC= 5.01D-08 BMatP= 5.03D-08
 IDIUse=1 WtCom= 1.00D+00 WtEn= 0.00D+00
 Coeff-Com: -0.784D-04 0.237D-03-0.122D-02 0.330D-03 0.472D-02 0.773D-03
 Coeff-Com: -0.182D-01 0.233D-02 0.144D-01 0.522D-02 0.936D-02-0.766D-01
 Coeff-Com:  0.216D+00-0.123D+00-0.930D-01 0.105D+00 0.171D+01-0.565D+00
 Coeff-Com: -0.658D+01 0.638D+01
 Coeff:     -0.784D-04 0.237D-03-0.122D-02 0.330D-03 0.472D-02 0.773D-03
 Coeff:     -0.182D-01 0.233D-02 0.144D-01 0.522D-02 0.936D-02-0.766D-01
 Coeff:      0.216D+00-0.123D+00-0.930D-01 0.105D+00 0.171D+01-0.565D+00
 Coeff:     -0.658D+01 0.638D+01
 Gap=     0.099 Goal=   None    Shift=    0.000
 RMSDP=3.70D-06 MaxDP=3.49D-05 DE=-2.52D-08 OVMax= 1.18D-04

 Cycle  25  Pass 1  IDiag  3:
 E= -1.63654152145665     Delta-E=        0.000000085817 Rises=F Damp=F
 DIIS: error= 2.90D-05 at cycle  25 NSaved=  20.
 NSaved=20 IEnMin=17 EnMin= -1.63654171686750     IErMin=11 ErrMin= 2.57D-05
 ErrMax= 2.90D-05  0.00D+00 EMaxC= 1.00D-01 BMatC= 4.97D-08 BMatP= 5.01D-08
 IDIUse=1 WtCom= 1.00D+00 WtEn= 0.00D+00
 Coeff-Com:  0.161D-03-0.178D-02 0.139D-02 0.403D-02-0.124D-02-0.142D-01
 Coeff-Com:  0.152D-01-0.277D-01 0.443D-01-0.125D-02-0.915D-01 0.262D+00
 Coeff-Com: -0.111D+00-0.662D-01 0.413D-01 0.121D+01-0.406D+00-0.272D+01
 Coeff-Com: -0.210D+00 0.307D+01
 Coeff:      0.161D-03-0.178D-02 0.139D-02 0.403D-02-0.124D-02-0.142D-01
 Coeff:      0.152D-01-0.277D-01 0.443D-01-0.125D-02-0.915D-01 0.262D+00
 Coeff:     -0.111D+00-0.662D-01 0.413D-01 0.121D+01-0.406D+00-0.272D+01
 Coeff:     -0.210D+00 0.307D+01
 Gap=     0.099 Goal=   None    Shift=    0.000
 RMSDP=8.36D-06 MaxDP=7.52D-05 DE= 8.58D-08 OVMax= 2.95D-04

 Cycle  26  Pass 1  IDiag  3:
 E= -1.63654128822913     Delta-E=        0.000000233228 Rises=F Damp=F
 DIIS: error= 2.90D-05 at cycle  26 NSaved=  20.
 NSaved=20 IEnMin=16 EnMin= -1.63654171686750     IErMin=10 ErrMin= 2.57D-05
 ErrMax= 2.90D-05  0.00D+00 EMaxC= 1.00D-01 BMatC= 4.96D-08 BMatP= 4.97D-08
 IDIUse=1 WtCom= 1.00D+00 WtEn= 0.00D+00
 Large coefficients: NSaved= 20 BigCof=   17.88 CofMax=   10.00 Det=-1.23D-12
 Inversion failed.  Reducing to 19 matrices.
 Large coefficients: NSaved= 19 BigCof=   19.64 CofMax=   10.00 Det=-2.40D-12
 Inversion failed.  Reducing to 18 matrices.
 Large coefficients: NSaved= 18 BigCof=   19.10 CofMax=   10.00 Det=-2.62D-12
 Inversion failed.  Reducing to 17 matrices.
 Large coefficients: NSaved= 17 BigCof=   15.29 CofMax=   10.00 Det=-1.46D-12
 Inversion failed.  Reducing to 16 matrices.
 Large coefficients: NSaved= 16 BigCof=   10.73 CofMax=   10.00 Det=-1.67D-12
 Inversion failed.  Reducing to 15 matrices.
 Large coefficients: NSaved= 15 BigCof=   10.71 CofMax=   10.00 Det=-1.67D-12
 Inversion failed.  Reducing to 14 matrices.
 Coeff-Com: -0.309D-01 0.993D-01-0.956D-01 0.444D-01 0.170D-01 0.102D+00
 Coeff-Com:  0.196D+00 0.329D+00-0.164D+00-0.147D+01 0.678D+00 0.140D+01
 Coeff-Com: -0.429D+01 0.418D+01
 Coeff:     -0.309D-01 0.993D-01-0.956D-01 0.444D-01 0.170D-01 0.102D+00
 Coeff:      0.196D+00 0.329D+00-0.164D+00-0.147D+01 0.678D+00 0.140D+01
 Coeff:     -0.429D+01 0.418D+01
 Gap=     0.099 Goal=   None    Shift=    0.000
 RMSDP=4.19D-05 MaxDP=3.49D-04 DE= 2.33D-07 OVMax= 1.56D-03

 Cycle  27  Pass 1  IDiag  3:
 E= -1.63653995918617     Delta-E=        0.000001329043 Rises=F Damp=F
 DIIS: error= 2.87D-05 at cycle  27 NSaved=  15.
 NSaved=15 IEnMin=10 EnMin= -1.63654171686750     IErMin= 4 ErrMin= 2.57D-05
 ErrMax= 2.87D-05  0.00D+00 EMaxC= 1.00D-01 BMatC= 4.87D-08 BMatP= 4.96D-08
 IDIUse=1 WtCom= 1.00D+00 WtEn= 0.00D+00
 Coeff-Com: -0.340D-01 0.973D-01-0.958D-01 0.256D-01 0.257D-01 0.106D+00
 Coeff-Com:  0.175D+00 0.347D+00-0.996D-01-0.117D+01 0.532D+00 0.106D+00
 Coeff-Com: -0.926D+00 0.972D+00 0.941D+00
 Coeff:     -0.340D-01 0.973D-01-0.958D-01 0.256D-01 0.257D-01 0.106D+00
 Coeff:      0.175D+00 0.347D+00-0.996D-01-0.117D+01 0.532D+00 0.106D+00
 Coeff:     -0.926D+00 0.972D+00 0.941D+00
 Gap=     0.099 Goal=   None    Shift=    0.000
 RMSDP=1.84D-05 MaxDP=1.57D-04 DE= 1.33D-06 OVMax= 6.80D-04

 Cycle  28  Pass 1  IDiag  3:
 E= -1.63653937304446     Delta-E=        0.000000586142 Rises=F Damp=F
 DIIS: error= 2.86D-05 at cycle  28 NSaved=  16.
 NSaved=16 IEnMin=10 EnMin= -1.63654171686750     IErMin= 4 ErrMin= 2.57D-05
 ErrMax= 2.86D-05  0.00D+00 EMaxC= 1.00D-01 BMatC= 4.83D-08 BMatP= 4.87D-08
 IDIUse=1 WtCom= 1.00D+00 WtEn= 0.00D+00
 Coeff-Com: -0.117D-01 0.293D-01-0.421D-01-0.467D-01 0.223D+00-0.465D-02
 Coeff-Com:  0.969D-01 0.195D+00-0.114D+00-0.968D+00 0.666D+00-0.210D+00
 Coeff-Com:  0.937D+00-0.195D+01-0.830D+00 0.303D+01
 Coeff:     -0.117D-01 0.293D-01-0.421D-01-0.467D-01 0.223D+00-0.465D-02
 Coeff:      0.969D-01 0.195D+00-0.114D+00-0.968D+00 0.666D+00-0.210D+00
 Coeff:      0.937D+00-0.195D+01-0.830D+00 0.303D+01
 Gap=     0.099 Goal=   None    Shift=    0.000
 RMSDP=8.69D-05 MaxDP=7.29D-04 DE= 5.86D-07 OVMax= 3.25D-03

 Cycle  29  Pass 1  IDiag  3:
 E= -1.63653663460400     Delta-E=        0.000002738440 Rises=F Damp=F
 DIIS: error= 2.81D-05 at cycle  29 NSaved=  17.
 NSaved=17 IEnMin=10 EnMin= -1.63654171686750     IErMin= 4 ErrMin= 2.57D-05
 ErrMax= 2.81D-05  0.00D+00 EMaxC= 1.00D-01 BMatC= 4.95D-08 BMatP= 4.83D-08
 IDIUse=1 WtCom= 1.00D+00 WtEn= 0.00D+00
 Coeff-Com: -0.167D-01 0.516D-01-0.594D-01-0.316D-01 0.175D+00 0.457D-01
 Coeff-Com:  0.121D+00 0.251D+00-0.462D+00-0.982D+00 0.238D+01-0.298D+01
 Coeff-Com:  0.241D+01-0.140D+01-0.131D+01 0.228D+01 0.533D+00
 Coeff:     -0.167D-01 0.516D-01-0.594D-01-0.316D-01 0.175D+00 0.457D-01
 Coeff:      0.121D+00 0.251D+00-0.462D+00-0.982D+00 0.238D+01-0.298D+01
 Coeff:      0.241D+01-0.140D+01-0.131D+01 0.228D+01 0.533D+00
 Gap=     0.099 Goal=   None    Shift=    0.000
 RMSDP=1.88D-05 MaxDP=1.71D-04 DE= 2.74D-06 OVMax= 6.58D-04

 Cycle  30  Pass 1  IDiag  3:
 E= -1.63653607291650     Delta-E=        0.000000561688 Rises=F Damp=F
 DIIS: error= 2.78D-05 at cycle  30 NSaved=  18.
 NSaved=18 IEnMin=10 EnMin= -1.63654171686750     IErMin= 4 ErrMin= 2.57D-05
 ErrMax= 2.78D-05  0.00D+00 EMaxC= 1.00D-01 BMatC= 4.66D-08 BMatP= 4.83D-08
 IDIUse=1 WtCom= 1.00D+00 WtEn= 0.00D+00
 Coeff-Com: -0.855D-02 0.128D-01 0.244D-01-0.773D-01 0.524D-01 0.470D-01
 Coeff-Com: -0.625D-01 0.542D+00 0.152D+00-0.179D+01 0.187D+00 0.103D+01
 Coeff-Com: -0.394D+00 0.106D+01 0.144D+01-0.679D+01-0.485D+00 0.607D+01
 Coeff:     -0.855D-02 0.128D-01 0.244D-01-0.773D-01 0.524D-01 0.470D-01
 Coeff:     -0.625D-01 0.542D+00 0.152D+00-0.179D+01 0.187D+00 0.103D+01
 Coeff:     -0.394D+00 0.106D+01 0.144D+01-0.679D+01-0.485D+00 0.607D+01
 Gap=     0.099 Goal=   None    Shift=    0.000
 RMSDP=4.13D-04 MaxDP=3.46D-03 DE= 5.62D-07 OVMax= 1.55D-02

 Cycle  31  Pass 1  IDiag  3:
 E= -1.63652370117245     Delta-E=        0.000012371744 Rises=F Damp=F
 DIIS: error= 2.72D-05 at cycle  31 NSaved=  19.
 NSaved=19 IEnMin=10 EnMin= -1.63654171686750     IErMin= 4 ErrMin= 2.57D-05
 ErrMax= 2.72D-05  0.00D+00 EMaxC= 1.00D-01 BMatC= 9.20D-08 BMatP= 4.66D-08
 IDIUse=1 WtCom= 1.00D+00 WtEn= 0.00D+00
 Coeff-Com: -0.105D-01 0.190D-01 0.190D-01-0.798D-01 0.569D-01 0.529D-01
 Coeff-Com: -0.509D-01 0.551D+00 0.990D-01-0.179D+01 0.114D+00 0.960D+00
 Coeff-Com: -0.562D-01 0.862D+00 0.144D+01-0.653D+01-0.701D+00 0.600D+01
 Coeff-Com:  0.527D-01
 Coeff:     -0.105D-01 0.190D-01 0.190D-01-0.798D-01 0.569D-01 0.529D-01
 Coeff:     -0.509D-01 0.551D+00 0.990D-01-0.179D+01 0.114D+00 0.960D+00
 Coeff:     -0.562D-01 0.862D+00 0.144D+01-0.653D+01-0.701D+00 0.600D+01
 Coeff:      0.527D-01
 Gap=     0.099 Goal=   None    Shift=    0.000
 RMSDP=2.74D-05 MaxDP=2.30D-04 DE= 1.24D-05 OVMax= 7.29D-04

 Cycle  32  Pass 1  IDiag  3:
 E= -1.63652367322470     Delta-E=        0.000000027948 Rises=F Damp=F
 DIIS: error= 2.51D-05 at cycle  32 NSaved=  20.
 NSaved=20 IEnMin=10 EnMin= -1.63654171686750     IErMin=20 ErrMin= 2.51D-05
 ErrMax= 2.51D-05  0.00D+00 EMaxC= 1.00D-01 BMatC= 5.45D-08 BMatP= 4.66D-08
 IDIUse=1 WtCom= 1.00D+00 WtEn= 0.00D+00
 Large coefficients: NSaved= 20 BigCof=   11.62 CofMax=   10.00 Det=-3.13D-12
 Inversion failed.  Reducing to 19 matrices.
 Large coefficients: NSaved= 19 BigCof=   10.23 CofMax=   10.00 Det=-3.14D-12
 Inversion failed.  Reducing to 18 matrices.
 Large coefficients: NSaved= 18 BigCof=   10.38 CofMax=   10.00 Det=-2.08D-12
 Inversion failed.  Reducing to 17 matrices.
 Large coefficients: NSaved= 17 BigCof=   10.38 CofMax=   10.00 Det=-3.20D-12
 Inversion failed.  Reducing to 16 matrices.
 Large coefficients: NSaved= 16 BigCof=   10.53 CofMax=   10.00 Det=-3.29D-12
 Inversion failed.  Reducing to 15 matrices.
 Large coefficients: NSaved= 15 BigCof=   10.20 CofMax=   10.00 Det=-3.31D-12
 Inversion failed.  Reducing to 14 matrices.
 Large coefficients: NSaved= 14 BigCof=   12.81 CofMax=   10.00 Det=-3.55D-12
 Inversion failed.  Reducing to 13 matrices.
 Large coefficients: NSaved= 13 BigCof=   11.73 CofMax=   10.00 Det=-3.59D-12
 Inversion failed.  Reducing to 12 matrices.
 Large coefficients: NSaved= 12 BigCof=   12.53 CofMax=   10.00 Det=-3.61D-12
 Inversion failed.  Reducing to 11 matrices.
 Large coefficients: NSaved= 11 BigCof=   11.75 CofMax=   10.00 Det=-3.61D-12
 Inversion failed.  Reducing to 10 matrices.
 Large coefficients: NSaved= 10 BigCof=   11.02 CofMax=   10.00 Det=-3.62D-12
 Inversion failed.  Reducing to  9 matrices.
 Large coefficients: NSaved=  9 BigCof=   11.07 CofMax=   10.00 Det=-2.67D-12
 Inversion failed.  Reducing to  8 matrices.
 Large coefficients: NSaved=  8 BigCof=   13.12 CofMax=   10.00 Det=-2.72D-12
 Inversion failed.  Reducing to  7 matrices.
 Large coefficients: NSaved=  7 BigCof=   10.40 CofMax=   10.00 Det=-3.57D-12
 Inversion failed.  Reducing to  6 matrices.
 Coeff-Com: -0.414D+01 0.895D+01-0.700D+01 0.195D+01-0.210D+00 0.145D+01
 Coeff:     -0.414D+01 0.895D+01-0.700D+01 0.195D+01-0.210D+00 0.145D+01
 Gap=     0.099 Goal=   None    Shift=    0.000
 RMSDP=1.37D-04 MaxDP=1.12D-03 DE= 2.79D-08 OVMax= 5.14D-03

 Cycle  33  Pass 1  IDiag  3:
 E= -1.63652010164020     Delta-E=        0.000003571585 Rises=F Damp=F
 DIIS: error= 2.23D-05 at cycle  33 NSaved=   7.
 NSaved= 7 IEnMin= 1 EnMin= -1.63654171686750     IErMin= 7 ErrMin= 2.23D-05
 ErrMax= 2.23D-05  0.00D+00 EMaxC= 1.00D-01 BMatC= 4.32D-08 BMatP= 4.97D-08
 IDIUse=1 WtCom= 1.00D+00 WtEn= 0.00D+00
 Coeff-Com: -0.165D+01-0.220D+01 0.605D+01-0.254D+01-0.407D+00 0.330D+00
 Coeff-Com:  0.142D+01
 Coeff:     -0.165D+01-0.220D+01 0.605D+01-0.254D+01-0.407D+00 0.330D+00
 Coeff:      0.142D+01
 Gap=     0.099 Goal=   None    Shift=    0.000
 RMSDP=2.25D-04 MaxDP=1.86D-03 DE= 3.57D-06 OVMax= 8.42D-03

 Cycle  34  Pass 1  IDiag  3:
 E= -1.63651438462762     Delta-E=        0.000005717013 Rises=F Damp=F
 DIIS: error= 2.11D-05 at cycle  34 NSaved=   8.
 NSaved= 8 IEnMin= 1 EnMin= -1.63654171686750     IErMin= 8 ErrMin= 2.11D-05
 ErrMax= 2.11D-05  0.00D+00 EMaxC= 1.00D-01 BMatC= 5.54D-08 BMatP= 4.32D-08
 IDIUse=1 WtCom= 1.00D+00 WtEn= 0.00D+00
 Coeff-Com: -0.179D+01-0.218D+01 0.602D+01-0.233D+01-0.471D+00 0.366D+00
 Coeff-Com:  0.111D+01 0.267D+00
 Coeff:     -0.179D+01-0.218D+01 0.602D+01-0.233D+01-0.471D+00 0.366D+00
 Coeff:      0.111D+01 0.267D+00
 Gap=     0.099 Goal=   None    Shift=    0.000
 RMSDP=2.42D-05 MaxDP=2.15D-04 DE= 5.72D-06 OVMax= 7.21D-04

 Cycle  35  Pass 1  IDiag  1:
 E= -1.63651399598700     Delta-E=        0.000000388641 Rises=F Damp=F
 DIIS: error= 2.06D-05 at cycle  35 NSaved=   9.
 NSaved= 9 IEnMin= 1 EnMin= -1.63654171686750     IErMin= 9 ErrMin= 2.06D-05
 ErrMax= 2.06D-05  0.00D+00 EMaxC= 1.00D-01 BMatC= 3.82D-08 BMatP= 4.32D-08
 IDIUse=1 WtCom= 1.00D+00 WtEn= 0.00D+00
 Coeff-Com:  0.276D+00-0.371D+01 0.607D+01-0.255D+01 0.310D+00-0.224D+01
 Coeff-Com: -0.655D+00-0.430D+00 0.394D+01
 Coeff:      0.276D+00-0.371D+01 0.607D+01-0.255D+01 0.310D+00-0.224D+01
 Coeff:     -0.655D+00-0.430D+00 0.394D+01
 RMSDP=7.98D-04 MaxDP=6.66D-03 DE= 3.89D-07 OVMax= 7.21D-04

 Cycle  36  Pass 1  IDiag  3:
 E= -1.63649719564950     Delta-E=        0.000016800338 Rises=F Damp=F
 DIIS: error= 4.21D-05 at cycle  36 NSaved=  10.
 NSaved=10 IEnMin= 1 EnMin= -1.63654171686750     IErMin= 9 ErrMin= 2.06D-05
 ErrMax= 4.21D-05  0.00D+00 EMaxC= 1.00D-01 BMatC= 1.47D-07 BMatP= 3.82D-08
 IDIUse=1 WtCom= 1.00D+00 WtEn= 0.00D+00
 Coeff-Com:  0.123D+01-0.637D+01 0.929D+01-0.426D+01 0.394D+00-0.211D+01
 Coeff-Com: -0.103D+01-0.412D+00 0.450D+01-0.230D+00
 Coeff:      0.123D+01-0.637D+01 0.929D+01-0.426D+01 0.394D+00-0.211D+01
 Coeff:     -0.103D+01-0.412D+00 0.450D+01-0.230D+00
 Gap=     0.098 Goal=   None    Shift=    0.000
 RMSDP=1.70D-05 MaxDP=2.12D-04 DE= 1.68D-05 OVMax= 5.57D-04

 Cycle  37  Pass 1  IDiag  3:
 E= -1.63649636142651     Delta-E=        0.000000834223 Rises=F Damp=F
 DIIS: error= 5.76D-05 at cycle  37 NSaved=  11.
 NSaved=11 IEnMin= 1 EnMin= -1.63654171686750     IErMin= 9 ErrMin= 2.06D-05
 ErrMax= 5.76D-05  0.00D+00 EMaxC= 1.00D-01 BMatC= 2.79D-07 BMatP= 3.82D-08
 IDIUse=1 WtCom= 1.00D+00 WtEn= 0.00D+00
 Large coefficients: NSaved= 11 BigCof=   11.98 CofMax=   10.00 Det=-3.38D-12
 Inversion failed.  Reducing to 10 matrices.
 Large coefficients: NSaved= 10 BigCof=   12.52 CofMax=   10.00 Det=-3.39D-12
 Inversion failed.  Reducing to  9 matrices.
 Large coefficients: NSaved=  9 BigCof=   12.36 CofMax=   10.00 Det=-3.40D-12
 Inversion failed.  Reducing to  8 matrices.
 Large coefficients: NSaved=  8 BigCof=   16.54 CofMax=   10.00 Det=-3.56D-12
 Inversion failed.  Reducing to  7 matrices.
 Large coefficients: NSaved=  7 BigCof=   13.29 CofMax=   10.00 Det=-3.66D-12
 Inversion failed.  Reducing to  6 matrices.
 Large coefficients: NSaved=  6 BigCof=   11.56 CofMax=   10.00 Det=-3.72D-12
 Inversion failed.  Reducing to  5 matrices.
 Coeff-Com:  0.200D+01-0.504D+01 0.290D+01 0.408D+01-0.294D+01
 Coeff:      0.200D+01-0.504D+01 0.290D+01 0.408D+01-0.294D+01
 Gap=     0.098 Goal=   None    Shift=    0.000
 RMSDP=2.14D-04 MaxDP=1.66D-03 DE= 8.34D-07 OVMax= 7.44D-03

 Cycle  38  Pass 1  IDiag  3:
 E= -1.63649475499091     Delta-E=        0.000001606436 Rises=F Damp=F
 DIIS: error= 1.85D-05 at cycle  38 NSaved=   6.
 NSaved= 6 IEnMin= 1 EnMin= -1.63654171686750     IErMin= 6 ErrMin= 1.85D-05
 ErrMax= 1.85D-05  0.00D+00 EMaxC= 1.00D-01 BMatC= 4.39D-08 BMatP= 5.01D-08
 IDIUse=1 WtCom= 1.00D+00 WtEn= 0.00D+00
 Coeff-Com:  0.177D+01-0.516D+01 0.328D+01 0.332D+01-0.248D+01 0.278D+00
 Coeff:      0.177D+01-0.516D+01 0.328D+01 0.332D+01-0.248D+01 0.278D+00
 Gap=     0.098 Goal=   None    Shift=    0.000
 RMSDP=2.80D-05 MaxDP=2.25D-04 DE= 1.61D-06 OVMax= 9.93D-04

 Cycle  39  Pass 1  IDiag  3:
 E= -1.63649444245004     Delta-E=        0.000000312541 Rises=F Damp=F
 DIIS: error= 1.73D-05 at cycle  39 NSaved=   7.
 NSaved= 7 IEnMin= 1 EnMin= -1.63654171686750     IErMin= 7 ErrMin= 1.73D-05
 ErrMax= 1.73D-05  0.00D+00 EMaxC= 1.00D-01 BMatC= 3.25D-08 BMatP= 4.39D-08
 IDIUse=1 WtCom= 1.00D+00 WtEn= 0.00D+00
 Coeff-Com: -0.184D+00 0.209D+01-0.194D+01-0.246D+01 0.116D+01-0.122D+00
 Coeff-Com:  0.245D+01
 Coeff:     -0.184D+00 0.209D+01-0.194D+01-0.246D+01 0.116D+01-0.122D+00
 Coeff:      0.245D+01
 Gap=     0.098 Goal=   None    Shift=    0.000
 RMSDP=3.60D-04 MaxDP=2.94D-03 DE= 3.13D-07 OVMax= 1.31D-02

 Cycle  40  Pass 1  IDiag  3:
 E= -1.63649017321677     Delta-E=        0.000004269233 Rises=F Damp=F
 DIIS: error= 1.19D-05 at cycle  40 NSaved=   8.
 NSaved= 8 IEnMin= 1 EnMin= -1.63654171686750     IErMin= 8 ErrMin= 1.19D-05
 ErrMax= 1.19D-05  0.00D+00 EMaxC= 1.00D-01 BMatC= 2.88D-08 BMatP= 3.25D-08
 IDIUse=1 WtCom= 1.00D+00 WtEn= 0.00D+00
 Coeff-Com: -0.961D-01 0.174D+01-0.166D+01-0.220D+01 0.104D+01-0.271D+00
 Coeff-Com:  0.227D+01 0.179D+00
 Coeff:     -0.961D-01 0.174D+01-0.166D+01-0.220D+01 0.104D+01-0.271D+00
 Coeff:      0.227D+01 0.179D+00
 Gap=     0.098 Goal=   None    Shift=    0.000
 RMSDP=1.03D-05 MaxDP=6.81D-05 DE= 4.27D-06 OVMax= 2.42D-04

 Cycle  41  Pass 1  IDiag  3:
 E= -1.63649017308791     Delta-E=        0.000000000129 Rises=F Damp=F
 DIIS: error= 1.30D-05 at cycle  41 NSaved=   9.
 NSaved= 9 IEnMin= 1 EnMin= -1.63654171686750     IErMin= 8 ErrMin= 1.19D-05
 ErrMax= 1.30D-05  0.00D+00 EMaxC= 1.00D-01 BMatC= 1.58D-08 BMatP= 2.88D-08
 IDIUse=1 WtCom= 1.00D+00 WtEn= 0.00D+00
 Coeff-Com: -0.249D-01 0.421D+01-0.416D+01 0.745D+00-0.480D+00 0.822D-01
 Coeff-Com: -0.119D+01-0.181D-01 0.184D+01
 Coeff:     -0.249D-01 0.421D+01-0.416D+01 0.745D+00-0.480D+00 0.822D-01
 Coeff:     -0.119D+01-0.181D-01 0.184D+01
 Gap=     0.098 Goal=   None    Shift=    0.000
 RMSDP=1.86D-04 MaxDP=1.52D-03 DE= 1.29D-10 OVMax= 6.77D-03

 Cycle  42  Pass 1  IDiag  3:
 E= -1.63648857549236     Delta-E=        0.000001597596 Rises=F Damp=F
 DIIS: error= 1.14D-05 at cycle  42 NSaved=  10.
 NSaved=10 IEnMin= 1 EnMin= -1.63654171686750     IErMin=10 ErrMin= 1.14D-05
 ErrMax= 1.14D-05  0.00D+00 EMaxC= 1.00D-01 BMatC= 1.83D-08 BMatP= 1.58D-08
 IDIUse=1 WtCom= 1.00D+00 WtEn= 0.00D+00
 Coeff-Com:  0.691D+00 0.179D-01-0.754D+00 0.127D+01-0.435D+00 0.114D-02
 Coeff-Com: -0.127D+01-0.460D+00 0.718D+00 0.122D+01
 Coeff:      0.691D+00 0.179D-01-0.754D+00 0.127D+01-0.435D+00 0.114D-02
 Coeff:     -0.127D+01-0.460D+00 0.718D+00 0.122D+01
 Gap=     0.098 Goal=   None    Shift=    0.000
 RMSDP=1.03D-04 MaxDP=9.10D-04 DE= 1.60D-06 OVMax= 3.87D-03

 Cycle  43  Pass 1  IDiag  3:
 E= -1.63648791163689     Delta-E=        0.000000663855 Rises=F Damp=F
 DIIS: error= 7.14D-06 at cycle  43 NSaved=  11.
 NSaved=11 IEnMin= 1 EnMin= -1.63654171686750     IErMin=11 ErrMin= 7.14D-06
 ErrMax= 7.14D-06  0.00D+00 EMaxC= 1.00D-01 BMatC= 7.88D-09 BMatP= 1.58D-08
 IDIUse=1 WtCom= 1.00D+00 WtEn= 0.00D+00
 Coeff-Com:  0.795D+00 0.693D+00-0.158D+01 0.168D+01-0.908D+00-0.244D-01
 Coeff-Com: -0.793D+00-0.263D+00-0.124D+00 0.469D+00 0.106D+01
 Coeff:      0.795D+00 0.693D+00-0.158D+01 0.168D+01-0.908D+00-0.244D-01
 Coeff:     -0.793D+00-0.263D+00-0.124D+00 0.469D+00 0.106D+01
 Gap=     0.098 Goal=   None    Shift=    0.000
 RMSDP=1.56D-04 MaxDP=1.36D-03 DE= 6.64D-07 OVMax= 5.85D-03

 Cycle  44  Pass 1  IDiag  3:
 E= -1.63648682525752     Delta-E=        0.000001086379 Rises=F Damp=F
 DIIS: error= 1.58D-05 at cycle  44 NSaved=  12.
 NSaved=12 IEnMin= 1 EnMin= -1.63654171686750     IErMin=11 ErrMin= 7.14D-06
 ErrMax= 1.58D-05  0.00D+00 EMaxC= 1.00D-01 BMatC= 2.61D-08 BMatP= 7.88D-09
 IDIUse=1 WtCom= 1.00D+00 WtEn= 0.00D+00
 Coeff-Com:  0.792D+00 0.676D+00-0.156D+01 0.167D+01-0.901D+00-0.245D-01
 Coeff-Com: -0.800D+00-0.261D+00-0.124D+00 0.470D+00 0.108D+01-0.129D-01
 Coeff:      0.792D+00 0.676D+00-0.156D+01 0.167D+01-0.901D+00-0.245D-01
 Coeff:     -0.800D+00-0.261D+00-0.124D+00 0.470D+00 0.108D+01-0.129D-01
 Gap=     0.098 Goal=   None    Shift=    0.000
 RMSDP=5.53D-06 MaxDP=4.96D-05 DE= 1.09D-06 OVMax= 1.54D-04

 Cycle  45  Pass 1  IDiag  3:
 E= -1.63648676208362     Delta-E=        0.000000063174 Rises=F Damp=F
 DIIS: error= 2.06D-05 at cycle  45 NSaved=  13.
 NSaved=13 IEnMin= 1 EnMin= -1.63654171686750     IErMin=11 ErrMin= 7.14D-06
 ErrMax= 2.06D-05  0.00D+00 EMaxC= 1.00D-01 BMatC= 3.64D-08 BMatP= 7.88D-09
 IDIUse=1 WtCom= 1.00D+00 WtEn= 0.00D+00
 Coeff-Com:  0.100D+01-0.266D+01 0.153D+01 0.331D+01-0.268D+01-0.907D-02
 Coeff-Com: -0.269D+00 0.786D-01-0.112D+01 0.943D-01 0.225D+00-0.176D+00
 Coeff-Com:  0.167D+01
 Coeff:      0.100D+01-0.266D+01 0.153D+01 0.331D+01-0.268D+01-0.907D-02
 Coeff:     -0.269D+00 0.786D-01-0.112D+01 0.943D-01 0.225D+00-0.176D+00
 Coeff:      0.167D+01
 Gap=     0.098 Goal=   None    Shift=    0.000
 RMSDP=3.04D-04 MaxDP=2.58D-03 DE= 6.32D-08 OVMax= 1.13D-02

 Cycle  46  Pass 1  IDiag  3:
 E= -1.63648540328734     Delta-E=        0.000001358796 Rises=F Damp=F
 DIIS: error= 2.41D-05 at cycle  46 NSaved=  14.
 NSaved=14 IEnMin= 1 EnMin= -1.63654171686750     IErMin=11 ErrMin= 7.14D-06
 ErrMax= 2.41D-05  0.00D+00 EMaxC= 1.00D-01 BMatC= 5.79D-08 BMatP= 7.88D-09
 IDIUse=1 WtCom= 1.00D+00 WtEn= 0.00D+00
 Coeff-Com:  0.997D+00-0.268D+01 0.156D+01 0.333D+01-0.269D+01-0.820D-02
 Coeff-Com: -0.282D+00 0.834D-01-0.112D+01 0.942D-01 0.214D+00-0.162D+00
 Coeff-Com:  0.168D+01-0.155D-01
 Coeff:      0.997D+00-0.268D+01 0.156D+01 0.333D+01-0.269D+01-0.820D-02
 Coeff:     -0.282D+00 0.834D-01-0.112D+01 0.942D-01 0.214D+00-0.162D+00
 Coeff:      0.168D+01-0.155D-01
 Gap=     0.099 Goal=   None    Shift=    0.000
 RMSDP=1.15D-05 MaxDP=1.11D-04 DE= 1.36D-06 OVMax= 3.83D-04

 Cycle  47  Pass 1  IDiag  3:
 E= -1.63648513153640     Delta-E=        0.000000271751 Rises=F Damp=F
 DIIS: error= 3.46D-05 at cycle  47 NSaved=  15.
 NSaved=15 IEnMin= 1 EnMin= -1.63654171686750     IErMin=11 ErrMin= 7.14D-06
 ErrMax= 3.46D-05  0.00D+00 EMaxC= 1.00D-01 BMatC= 1.01D-07 BMatP= 7.88D-09
 IDIUse=1 WtCom= 1.00D+00 WtEn= 0.00D+00
 Coeff-Com:  0.992D+00-0.438D+01 0.315D+01 0.402D+01-0.317D+01 0.664D-01
 Coeff-Com: -0.579D+00 0.378D+00-0.161D+01-0.508D+00-0.612D+00-0.139D+00
 Coeff-Com:  0.552D+01 0.168D+00-0.231D+01
 Coeff:      0.992D+00-0.438D+01 0.315D+01 0.402D+01-0.317D+01 0.664D-01
 Coeff:     -0.579D+00 0.378D+00-0.161D+01-0.508D+00-0.612D+00-0.139D+00
 Coeff:      0.552D+01 0.168D+00-0.231D+01
 Gap=     0.098 Goal=   None    Shift=    0.000
 RMSDP=6.40D-05 MaxDP=6.19D-04 DE= 2.72D-07 OVMax= 2.05D-03

 Cycle  48  Pass 1  IDiag  3:
 E= -1.63648215364418     Delta-E=        0.000002977892 Rises=F Damp=F
 DIIS: error= 8.35D-05 at cycle  48 NSaved=  16.
 NSaved=16 IEnMin= 1 EnMin= -1.63654171686750     IErMin=11 ErrMin= 7.14D-06
 ErrMax= 8.35D-05  0.00D+00 EMaxC= 1.00D-01 BMatC= 6.10D-07 BMatP= 7.88D-09
 IDIUse=1 WtCom= 1.00D+00 WtEn= 0.00D+00
 Coeff-Com:  0.910D-01-0.182D+01 0.170D+01-0.154D+01 0.163D+01-0.418D-01
 Coeff-Com:  0.227D+00 0.313D+00-0.817D+00-0.563D+00-0.688D+00 0.164D+00
 Coeff-Com:  0.300D+01 0.674D-01 0.655D+00-0.139D+01
 Coeff:      0.910D-01-0.182D+01 0.170D+01-0.154D+01 0.163D+01-0.418D-01
 Coeff:      0.227D+00 0.313D+00-0.817D+00-0.563D+00-0.688D+00 0.164D+00
 Coeff:      0.300D+01 0.674D-01 0.655D+00-0.139D+01
 Gap=     0.098 Goal=   None    Shift=    0.000
 RMSDP=1.49D-04 MaxDP=1.27D-03 DE= 2.98D-06 OVMax= 4.47D-03

 Cycle  49  Pass 1  IDiag  3:
 E= -1.63648642342656     Delta-E=       -0.000004269782 Rises=F Damp=F
 DIIS: error= 1.31D-05 at cycle  49 NSaved=  17.
 NSaved=17 IEnMin= 1 EnMin= -1.63654171686750     IErMin=11 ErrMin= 7.14D-06
 ErrMax= 1.31D-05  0.00D+00 EMaxC= 1.00D-01 BMatC= 1.53D-08 BMatP= 7.88D-09
 IDIUse=1 WtCom= 1.00D+00 WtEn= 0.00D+00
 Coeff-Com: -0.967D-01-0.293D-01 0.549D-01-0.158D+01 0.149D+01 0.598D-01
 Coeff-Com:  0.364D+00 0.244D+00-0.746D+00-0.386D+00-0.402D+00 0.129D+00
 Coeff-Com:  0.199D+01 0.263D-01 0.384D+00-0.101D+01 0.506D+00
 Coeff:     -0.967D-01-0.293D-01 0.549D-01-0.158D+01 0.149D+01 0.598D-01
 Coeff:      0.364D+00 0.244D+00-0.746D+00-0.386D+00-0.402D+00 0.129D+00
 Coeff:      0.199D+01 0.263D-01 0.384D+00-0.101D+01 0.506D+00
 Gap=     0.098 Goal=   None    Shift=    0.000
 RMSDP=1.05D-04 MaxDP=9.00D-04 DE=-4.27D-06 OVMax= 3.90D-03

 Cycle  50  Pass 1  IDiag  3:
 E= -1.63648580164892     Delta-E=        0.000000621778 Rises=F Damp=F
 DIIS: error= 2.53D-05 at cycle  50 NSaved=  18.
 NSaved=18 IEnMin= 1 EnMin= -1.63654171686750     IErMin=11 ErrMin= 7.14D-06
 ErrMax= 2.53D-05  0.00D+00 EMaxC= 1.00D-01 BMatC= 5.55D-08 BMatP= 7.88D-09
 IDIUse=1 WtCom= 1.00D+00 WtEn= 0.00D+00
 Coeff-Com:  0.484D-02-0.254D+00 0.177D+00-0.140D+01 0.136D+01 0.683D-01
 Coeff-Com:  0.282D+00 0.240D+00-0.713D+00-0.367D+00-0.340D+00 0.728D-01
 Coeff-Com:  0.197D+01-0.392D-02 0.360D+00-0.101D+01 0.324D+00 0.230D+00
 Coeff:      0.484D-02-0.254D+00 0.177D+00-0.140D+01 0.136D+01 0.683D-01
 Coeff:      0.282D+00 0.240D+00-0.713D+00-0.367D+00-0.340D+00 0.728D-01
 Coeff:      0.197D+01-0.392D-02 0.360D+00-0.101D+01 0.324D+00 0.230D+00
 Gap=     0.098 Goal=   None    Shift=    0.000
 RMSDP=1.09D-05 MaxDP=9.10D-05 DE= 6.22D-07 OVMax= 3.92D-04

 Cycle  51  Pass 1  IDiag  3:
 E= -1.63648568688694     Delta-E=        0.000000114762 Rises=F Damp=F
 DIIS: error= 2.90D-05 at cycle  51 NSaved=  19.
 NSaved=19 IEnMin= 1 EnMin= -1.63654171686750     IErMin=11 ErrMin= 7.14D-06
 ErrMax= 2.90D-05  0.00D+00 EMaxC= 1.00D-01 BMatC= 7.08D-08 BMatP= 7.88D-09
 IDIUse=1 WtCom= 1.00D+00 WtEn= 0.00D+00
 Coeff-Com:  0.244D+00-0.829D+00 0.406D+00 0.127D+01-0.113D+01-0.624D-01
 Coeff-Com: -0.234D-01-0.846D-02-0.147D+00 0.798D-01 0.339D-01-0.644D-01
 Coeff-Com:  0.535D+00 0.206D-01-0.106D+01-0.177D+00-0.144D+00-0.630D-01
 Coeff-Com:  0.212D+01
 Coeff:      0.244D+00-0.829D+00 0.406D+00 0.127D+01-0.113D+01-0.624D-01
 Coeff:     -0.234D-01-0.846D-02-0.147D+00 0.798D-01 0.339D-01-0.644D-01
 Coeff:      0.535D+00 0.206D-01-0.106D+01-0.177D+00-0.144D+00-0.630D-01
 Coeff:      0.212D+01
 Gap=     0.099 Goal=   None    Shift=    0.000
 RMSDP=3.58D-04 MaxDP=3.06D-03 DE= 1.15D-07 OVMax= 1.33D-02

 Cycle  52  Pass 1  IDiag  3:
 E= -1.63648304260209     Delta-E=        0.000002644285 Rises=F Damp=F
 DIIS: error= 7.01D-05 at cycle  52 NSaved=  20.
 NSaved=20 IEnMin= 1 EnMin= -1.63654171686750     IErMin=11 ErrMin= 7.14D-06
 ErrMax= 7.01D-05  0.00D+00 EMaxC= 1.00D-01 BMatC= 4.43D-07 BMatP= 7.88D-09
 IDIUse=1 WtCom= 1.00D+00 WtEn= 0.00D+00
 Coeff-Com:  0.222D+00-0.820D+00 0.419D+00 0.122D+01-0.111D+01-0.595D-01
 Coeff-Com:  0.156D-01-0.955D-02-0.153D+00 0.709D-01 0.277D-01-0.525D-01
 Coeff-Com:  0.498D+00 0.453D-01-0.108D+01-0.152D+00-0.185D+00-0.135D-01
 Coeff-Com:  0.216D+01-0.428D-01
 Coeff:      0.222D+00-0.820D+00 0.419D+00 0.122D+01-0.111D+01-0.595D-01
 Coeff:      0.156D-01-0.955D-02-0.153D+00 0.709D-01 0.277D-01-0.525D-01
 Coeff:      0.498D+00 0.453D-01-0.108D+01-0.152D+00-0.185D+00-0.135D-01
 Coeff:      0.216D+01-0.428D-01
 Gap=     0.099 Goal=   None    Shift=    0.000
 RMSDP=1.31D-05 MaxDP=1.49D-04 DE= 2.64D-06 OVMax= 4.22D-04

 Cycle  53  Pass 1  IDiag  3:
 E= -1.63648214897893     Delta-E=        0.000000893623 Rises=F Damp=F
 DIIS: error= 8.28D-05 at cycle  53 NSaved=  20.
 NSaved=20 IEnMin= 1 EnMin= -1.63654171686750     IErMin=11 ErrMin= 7.14D-06
 ErrMax= 8.28D-05  0.00D+00 EMaxC= 1.00D-01 BMatC= 6.07D-07 BMatP= 7.88D-09
 IDIUse=1 WtCom= 1.00D+00 WtEn= 0.00D+00
 Coeff-Com:  0.170D+00-0.387D+00 0.358D-01 0.104D+01-0.989D+00-0.696D-01
 Coeff-Com:  0.128D+00-0.359D-01-0.134D+00 0.113D+00 0.655D-01-0.626D-01
 Coeff-Com:  0.181D+00 0.285D-01-0.104D+01-0.237D+00-0.147D-01 0.243D+01
 Coeff-Com: -0.273D-01-0.192D+00
 Coeff:      0.170D+00-0.387D+00 0.358D-01 0.104D+01-0.989D+00-0.696D-01
 Coeff:      0.128D+00-0.359D-01-0.134D+00 0.113D+00 0.655D-01-0.626D-01
 Coeff:      0.181D+00 0.285D-01-0.104D+01-0.237D+00-0.147D-01 0.243D+01
 Coeff:     -0.273D-01-0.192D+00
 Gap=     0.099 Goal=   None    Shift=    0.000
 RMSDP=1.95D-05 MaxDP=1.59D-04 DE= 8.94D-07 OVMax= 7.04D-04

 Cycle  54  Pass 1  IDiag  3:
 E= -1.63648194634294     Delta-E=        0.000000202636 Rises=F Damp=F
 DIIS: error= 8.51D-05 at cycle  54 NSaved=  20.
 NSaved=20 IEnMin= 1 EnMin= -1.63654171686750     IErMin=11 ErrMin= 7.14D-06
 ErrMax= 8.51D-05  0.00D+00 EMaxC= 1.00D-01 BMatC= 6.39D-07 BMatP= 7.88D-09
 IDIUse=1 WtCom= 1.00D+00 WtEn= 0.00D+00
 Coeff-Com:  0.179D+00-0.351D+00-0.100D-01 0.105D+01-0.996D+00-0.725D-01
 Coeff-Com:  0.111D+00-0.367D-01-0.129D+00 0.122D+00 0.724D-01-0.714D-01
 Coeff-Com:  0.180D+00 0.106D-01-0.102D+01-0.216D+00-0.465D-01 0.243D+01
 Coeff-Com: -0.163D+00-0.448D-01
 Coeff:      0.179D+00-0.351D+00-0.100D-01 0.105D+01-0.996D+00-0.725D-01
 Coeff:      0.111D+00-0.367D-01-0.129D+00 0.122D+00 0.724D-01-0.714D-01
 Coeff:      0.180D+00 0.106D-01-0.102D+01-0.216D+00-0.465D-01 0.243D+01
 Coeff:     -0.163D+00-0.448D-01
 Gap=     0.099 Goal=   None    Shift=    0.000
 RMSDP=1.14D-06 MaxDP=1.03D-05 DE= 2.03D-07 OVMax= 3.72D-05

 Cycle  55  Pass 1  IDiag  3:
 E= -1.63648201892573     Delta-E=       -0.000000072583 Rises=F Damp=F
 DIIS: error= 8.42D-05 at cycle  55 NSaved=  20.
 NSaved=20 IEnMin= 1 EnMin= -1.63654171686750     IErMin=11 ErrMin= 7.14D-06
 ErrMax= 8.42D-05  0.00D+00 EMaxC= 1.00D-01 BMatC= 6.26D-07 BMatP= 7.88D-09
 IDIUse=1 WtCom= 1.00D+00 WtEn= 0.00D+00
 Coeff-Com:  0.159D+00-0.315D+00-0.218D-01 0.968D+00-0.928D+00-0.703D-01
 Coeff-Com:  0.143D+00-0.433D-01-0.133D+00 0.127D+00 0.765D-01-0.697D-01
 Coeff-Com:  0.125D+00 0.223D-01-0.986D+00-0.231D+00-0.257D-01 0.243D+01
 Coeff-Com:  0.322D+00-0.550D+00
 Coeff:      0.159D+00-0.315D+00-0.218D-01 0.968D+00-0.928D+00-0.703D-01
 Coeff:      0.143D+00-0.433D-01-0.133D+00 0.127D+00 0.765D-01-0.697D-01
 Coeff:      0.125D+00 0.223D-01-0.986D+00-0.231D+00-0.257D-01 0.243D+01
 Coeff:      0.322D+00-0.550D+00
 Gap=     0.099 Goal=   None    Shift=    0.000
 RMSDP=2.72D-06 MaxDP=2.41D-05 DE=-7.26D-08 OVMax= 9.11D-05

 Cycle  56  Pass 1  IDiag  3:
 E= -1.63648212713485     Delta-E=       -0.000000108209 Rises=F Damp=F
 DIIS: error= 8.30D-05 at cycle  56 NSaved=  20.
 NSaved=20 IEnMin= 1 EnMin= -1.63654171686750     IErMin=11 ErrMin= 7.14D-06
 ErrMax= 8.30D-05  0.00D+00 EMaxC= 1.00D-01 BMatC= 6.08D-07 BMatP= 7.88D-09
 IDIUse=1 WtCom= 1.00D+00 WtEn= 0.00D+00
 Coeff-Com:  0.179D+00-0.428D+00 0.772D-01 0.103D+01-0.965D+00-0.699D-01
 Coeff-Com:  0.827D-01-0.249D-01-0.117D+00 0.986D-01 0.497D-01-0.447D-01
 Coeff-Com:  0.229D+00 0.123D-01-0.101D+01-0.227D+00-0.412D-01 0.228D+01
 Coeff-Com: -0.471D+01 0.458D+01
 Coeff:      0.179D+00-0.428D+00 0.772D-01 0.103D+01-0.965D+00-0.699D-01
 Coeff:      0.827D-01-0.249D-01-0.117D+00 0.986D-01 0.497D-01-0.447D-01
 Coeff:      0.229D+00 0.123D-01-0.101D+01-0.227D+00-0.412D-01 0.228D+01
 Coeff:     -0.471D+01 0.458D+01
 Gap=     0.099 Goal=   None    Shift=    0.000
 RMSDP=4.17D-06 MaxDP=4.34D-05 DE=-1.08D-07 OVMax= 1.05D-04

 Cycle  57  Pass 1  IDiag  3:
 E= -1.63648238407967     Delta-E=       -0.000000256945 Rises=F Damp=F
 DIIS: error= 8.00D-05 at cycle  57 NSaved=  20.
 NSaved=20 IEnMin= 1 EnMin= -1.63654171686750     IErMin=11 ErrMin= 7.14D-06
 ErrMax= 8.00D-05  0.00D+00 EMaxC= 1.00D-01 BMatC= 5.65D-07 BMatP= 7.88D-09
 IDIUse=1 WtCom= 1.00D+00 WtEn= 0.00D+00
 Coeff-Com:  0.155D+00-0.380D+00 0.738D-01 0.823D+00-0.793D+00-0.608D-01
 Coeff-Com:  0.167D+00-0.176D-01-0.212D+00 0.768D-01 0.696D-01-0.687D-01
 Coeff-Com:  0.286D+00 0.858D-02-0.875D+00-0.175D+00-0.401D-01 0.193D+01
 Coeff-Com: -0.541D+01 0.544D+01
 Coeff:      0.155D+00-0.380D+00 0.738D-01 0.823D+00-0.793D+00-0.608D-01
 Coeff:      0.167D+00-0.176D-01-0.212D+00 0.768D-01 0.696D-01-0.687D-01
 Coeff:      0.286D+00 0.858D-02-0.875D+00-0.175D+00-0.401D-01 0.193D+01
 Coeff:     -0.541D+01 0.544D+01
 Gap=     0.099 Goal=   None    Shift=    0.000
 RMSDP=1.52D-05 MaxDP=1.52D-04 DE=-2.57D-07 OVMax= 4.08D-04

 Cycle  58  Pass 1  IDiag  3:
 E= -1.63648318956996     Delta-E=       -0.000000805490 Rises=F Damp=F
 DIIS: error= 6.97D-05 at cycle  58 NSaved=  20.
 NSaved=20 IEnMin= 1 EnMin= -1.63654171686750     IErMin=11 ErrMin= 7.14D-06
 ErrMax= 6.97D-05  0.00D+00 EMaxC= 1.00D-01 BMatC= 4.29D-07 BMatP= 7.88D-09
 IDIUse=1 WtCom= 1.00D+00 WtEn= 0.00D+00
 Coeff-Com:  0.165D+00-0.379D+00 0.739D-01 0.827D+00-0.773D+00-0.609D-01
 Coeff-Com:  0.914D-01-0.147D-01-0.127D+00 0.796D-01 0.441D-01-0.437D-01
 Coeff-Com:  0.193D+00 0.990D-02-0.790D+00-0.209D+00-0.362D-01 0.190D+01
 Coeff-Com: -0.183D+01 0.188D+01
 Coeff:      0.165D+00-0.379D+00 0.739D-01 0.827D+00-0.773D+00-0.609D-01
 Coeff:      0.914D-01-0.147D-01-0.127D+00 0.796D-01 0.441D-01-0.437D-01
 Coeff:      0.193D+00 0.990D-02-0.790D+00-0.209D+00-0.362D-01 0.190D+01
 Coeff:     -0.183D+01 0.188D+01
 Gap=     0.099 Goal=   None    Shift=    0.000
 RMSDP=9.79D-06 MaxDP=8.68D-05 DE=-8.05D-07 OVMax= 3.21D-04

 Cycle  59  Pass 1  IDiag  3:
 E= -1.63648353584426     Delta-E=       -0.000000346274 Rises=F Damp=F
 DIIS: error= 6.48D-05 at cycle  59 NSaved=  20.
 NSaved=20 IEnMin= 1 EnMin= -1.63654171686750     IErMin=11 ErrMin= 7.14D-06
 ErrMax= 6.48D-05  0.00D+00 EMaxC= 1.00D-01 BMatC= 3.71D-07 BMatP= 7.88D-09
 IDIUse=1 WtCom= 1.00D+00 WtEn= 0.00D+00
 Coeff-Com:  0.205D+00-0.566D+00 0.183D+00 0.126D+01-0.118D+01-0.587D-01
 Coeff-Com:  0.550D-01-0.263D-01-0.151D+00 0.109D+00 0.613D-01-0.690D-01
 Coeff-Com:  0.327D+00 0.101D-01-0.110D+01-0.171D+00-0.591D-01 0.220D+01
 Coeff-Com: -0.130D+01 0.125D+01
 Coeff:      0.205D+00-0.566D+00 0.183D+00 0.126D+01-0.118D+01-0.587D-01
 Coeff:      0.550D-01-0.263D-01-0.151D+00 0.109D+00 0.613D-01-0.690D-01
 Coeff:      0.327D+00 0.101D-01-0.110D+01-0.171D+00-0.591D-01 0.220D+01
 Coeff:     -0.130D+01 0.125D+01
 Gap=     0.099 Goal=   None    Shift=    0.000
 RMSDP=4.69D-05 MaxDP=4.02D-04 DE=-3.46D-07 OVMax= 1.65D-03

 Cycle  60  Pass 1  IDiag  3:
 E= -1.63648232180344     Delta-E=        0.000001214041 Rises=F Damp=F
 DIIS: error= 8.07D-05 at cycle  60 NSaved=  20.
 NSaved=20 IEnMin= 1 EnMin= -1.63654171686750     IErMin=11 ErrMin= 7.14D-06
 ErrMax= 8.07D-05  0.00D+00 EMaxC= 1.00D-01 BMatC= 5.77D-07 BMatP= 7.88D-09
 IDIUse=1 WtCom= 1.00D+00 WtEn= 0.00D+00
 Coeff-Com:  0.199D+00-0.534D+00 0.153D+00 0.128D+01-0.120D+01-0.616D-01
 Coeff-Com:  0.733D-01-0.813D-02-0.191D+00 0.966D-01 0.281D-01-0.472D-01
 Coeff-Com:  0.433D+00 0.309D-01-0.117D+01-0.203D+00-0.453D-01 0.220D+01
 Coeff-Com:  0.369D+00-0.407D+00
 Coeff:      0.199D+00-0.534D+00 0.153D+00 0.128D+01-0.120D+01-0.616D-01
 Coeff:      0.733D-01-0.813D-02-0.191D+00 0.966D-01 0.281D-01-0.472D-01
 Coeff:      0.433D+00 0.309D-01-0.117D+01-0.203D+00-0.453D-01 0.220D+01
 Coeff:      0.369D+00-0.407D+00
 Gap=     0.099 Goal=   None    Shift=    0.000
 RMSDP=4.89D-06 MaxDP=4.78D-05 DE= 1.21D-06 OVMax= 1.62D-04

 Cycle  61  Pass 1  IDiag  3:
 E= -1.63648200340248     Delta-E=        0.000000318401 Rises=F Damp=F
 DIIS: error= 8.45D-05 at cycle  61 NSaved=  20.
 NSaved=20 IEnMin= 1 EnMin= -1.63654171686750     IErMin=11 ErrMin= 7.14D-06
 ErrMax= 8.45D-05  0.00D+00 EMaxC= 1.00D-01 BMatC= 6.31D-07 BMatP= 7.88D-09
 IDIUse=1 WtCom= 1.00D+00 WtEn= 0.00D+00
 Coeff-Com:  0.185D+00-0.376D+00 0.104D-01 0.106D+01-0.999D+00-0.714D-01
 Coeff-Com:  0.987D-01-0.411D-01-0.117D+00 0.125D+00 0.836D-01-0.760D-01
 Coeff-Com:  0.156D+00 0.801D-02-0.101D+01-0.208D+00-0.482D-01 0.241D+01
 Coeff-Com:  0.101D+00-0.295D+00
 Coeff:      0.185D+00-0.376D+00 0.104D-01 0.106D+01-0.999D+00-0.714D-01
 Coeff:      0.987D-01-0.411D-01-0.117D+00 0.125D+00 0.836D-01-0.760D-01
 Coeff:      0.156D+00 0.801D-02-0.101D+01-0.208D+00-0.482D-01 0.241D+01
 Coeff:      0.101D+00-0.295D+00
 Gap=     0.099 Goal=   None    Shift=    0.000
 RMSDP=1.66D-05 MaxDP=1.39D-04 DE= 3.18D-07 OVMax= 6.12D-04

 Cycle  62  Pass 1  IDiag  3:
 E= -1.63648202587802     Delta-E=       -0.000000022476 Rises=F Damp=F
 DIIS: error= 8.42D-05 at cycle  62 NSaved=  20.
 NSaved=20 IEnMin= 1 EnMin= -1.63654171686750     IErMin=11 ErrMin= 7.14D-06
 ErrMax= 8.42D-05  0.00D+00 EMaxC= 1.00D-01 BMatC= 6.26D-07 BMatP= 7.88D-09
 IDIUse=1 WtCom= 1.00D+00 WtEn= 0.00D+00
 Coeff-Com:  0.182D+00-0.332D+00-0.311D-01 0.105D+01-0.989D+00-0.740D-01
 Coeff-Com:  0.109D+00-0.357D-01-0.133D+00 0.122D+00 0.748D-01-0.739D-01
 Coeff-Com:  0.189D+00-0.220D-02-0.101D+01-0.208D+00-0.572D-01 0.243D+01
 Coeff-Com:  0.224D+00-0.432D+00
 Coeff:      0.182D+00-0.332D+00-0.311D-01 0.105D+01-0.989D+00-0.740D-01
 Coeff:      0.109D+00-0.357D-01-0.133D+00 0.122D+00 0.748D-01-0.739D-01
 Coeff:      0.189D+00-0.220D-02-0.101D+01-0.208D+00-0.572D-01 0.243D+01
 Coeff:      0.224D+00-0.432D+00
 Gap=     0.099 Goal=   None    Shift=    0.000
 RMSDP=7.70D-07 MaxDP=6.62D-06 DE=-2.25D-08 OVMax= 2.42D-05

 Cycle  63  Pass 1  IDiag  3:
 E= -1.63648207229943     Delta-E=       -0.000000046421 Rises=F Damp=F
 DIIS: error= 8.36D-05 at cycle  63 NSaved=  20.
 NSaved=20 IEnMin= 1 EnMin= -1.63654171686750     IErMin=11 ErrMin= 7.14D-06
 ErrMax= 8.36D-05  0.00D+00 EMaxC= 1.00D-01 BMatC= 6.18D-07 BMatP= 7.88D-09
 IDIUse=1 WtCom= 1.00D+00 WtEn= 0.00D+00
 Coeff-Com:  0.167D+00-0.318D+00-0.278D-01 0.100D+01-0.954D+00-0.719D-01
 Coeff-Com:  0.127D+00-0.376D-01-0.130D+00 0.121D+00 0.714D-01-0.709D-01
 Coeff-Com:  0.158D+00 0.174D-01-0.100D+01-0.226D+00-0.341D-01 0.243D+01
 Coeff-Com:  0.179D+00-0.401D+00
 Coeff:      0.167D+00-0.318D+00-0.278D-01 0.100D+01-0.954D+00-0.719D-01
 Coeff:      0.127D+00-0.376D-01-0.130D+00 0.121D+00 0.714D-01-0.709D-01
 Coeff:      0.158D+00 0.174D-01-0.100D+01-0.226D+00-0.341D-01 0.243D+01
 Coeff:      0.179D+00-0.401D+00
 Gap=     0.099 Goal=   None    Shift=    0.000
 RMSDP=3.72D-06 MaxDP=3.10D-05 DE=-4.64D-08 OVMax= 1.37D-04

 Cycle  64  Pass 1  IDiag  3:
 E= -1.63648208900963     Delta-E=       -0.000000016710 Rises=F Damp=F
 DIIS: error= 8.34D-05 at cycle  64 NSaved=  20.
 NSaved=20 IEnMin= 1 EnMin= -1.63654171686750     IErMin=11 ErrMin= 7.14D-06
 ErrMax= 8.34D-05  0.00D+00 EMaxC= 1.00D-01 BMatC= 6.15D-07 BMatP= 7.88D-09
 IDIUse=1 WtCom= 1.00D+00 WtEn= 0.00D+00
 Coeff-Com:  0.171D+00-0.311D+00-0.403D-01 0.101D+01-0.960D+00-0.732D-01
 Coeff-Com:  0.124D+00-0.376D-01-0.131D+00 0.121D+00 0.726D-01-0.719D-01
 Coeff-Com:  0.165D+00 0.999D-02-0.100D+01-0.219D+00-0.444D-01 0.243D+01
 Coeff-Com:  0.184D+00-0.404D+00
 Coeff:      0.171D+00-0.311D+00-0.403D-01 0.101D+01-0.960D+00-0.732D-01
 Coeff:      0.124D+00-0.376D-01-0.131D+00 0.121D+00 0.726D-01-0.719D-01
 Coeff:      0.165D+00 0.999D-02-0.100D+01-0.219D+00-0.444D-01 0.243D+01
 Coeff:      0.184D+00-0.404D+00
 Gap=     0.099 Goal=   None    Shift=    0.000
 RMSDP=6.79D-07 MaxDP=5.10D-06 DE=-1.67D-08 OVMax= 2.31D-05

 Cycle  65  Pass 1  IDiag  1:
 E= -1.63648210182362     Delta-E=       -0.000000012814 Rises=F Damp=F
 DIIS: error= 8.33D-05 at cycle  65 NSaved=  20.
 NSaved=20 IEnMin= 1 EnMin= -1.63654171686750     IErMin=11 ErrMin= 7.14D-06
 ErrMax= 8.33D-05  0.00D+00 EMaxC= 1.00D-01 BMatC= 6.12D-07 BMatP= 7.88D-09
 IDIUse=1 WtCom= 1.00D+00 WtEn= 0.00D+00
 Coeff-Com:  0.172D+00-0.309D+00-0.427D-01 0.102D+01-0.962D+00-0.734D-01
 Coeff-Com:  0.121D+00-0.379D-01-0.130D+00 0.121D+00 0.740D-01-0.720D-01
 Coeff-Com:  0.165D+00 0.869D-02-0.100D+01-0.217D+00-0.472D-01 0.243D+01
 Coeff-Com: -0.694D+00 0.477D+00
 Coeff:      0.172D+00-0.309D+00-0.427D-01 0.102D+01-0.962D+00-0.734D-01
 Coeff:      0.121D+00-0.379D-01-0.130D+00 0.121D+00 0.740D-01-0.720D-01
 Coeff:      0.165D+00 0.869D-02-0.100D+01-0.217D+00-0.472D-01 0.243D+01
 Coeff:     -0.694D+00 0.477D+00
 RMSDP=2.69D-08 MaxDP=1.73D-07 DE=-1.28D-08 OVMax= 2.31D-05

 Cycle  66  Pass 1  IDiag  3:
 E= -1.63648210149341     Delta-E=        0.000000000330 Rises=F Damp=F
 DIIS: error= 8.33D-05 at cycle  66 NSaved=  20.
 NSaved=20 IEnMin= 1 EnMin= -1.63654171686750     IErMin=11 ErrMin= 7.14D-06
 ErrMax= 8.33D-05  0.00D+00 EMaxC= 1.00D-01 BMatC= 6.12D-07 BMatP= 7.88D-09
 IDIUse=1 WtCom= 1.00D+00 WtEn= 0.00D+00
 Coeff-Com:  0.172D+00-0.321D+00-0.314D-01 0.102D+01-0.968D+00-0.729D-01
 Coeff-Com:  0.122D+00-0.372D-01-0.131D+00 0.122D+00 0.673D-01-0.742D-01
 Coeff-Com:  0.176D+00 0.128D-01-0.101D+01-0.220D+00-0.410D-01 0.243D+01
 Coeff-Com: -0.317D+01 0.295D+01
 Coeff:      0.172D+00-0.321D+00-0.314D-01 0.102D+01-0.968D+00-0.729D-01
 Coeff:      0.122D+00-0.372D-01-0.131D+00 0.122D+00 0.673D-01-0.742D-01
 Coeff:      0.176D+00 0.128D-01-0.101D+01-0.220D+00-0.410D-01 0.243D+01
 Coeff:     -0.317D+01 0.295D+01
 Gap=     0.098 Goal=   None    Shift=    0.000
 RMSDP=4.44D-07 MaxDP=3.94D-06 DE= 3.30D-10 OVMax= 1.34D-05

 Cycle  67  Pass 1  IDiag  3:
 E= -1.63648208271763     Delta-E=        0.000000018776 Rises=F Damp=F
 DIIS: error= 8.35D-05 at cycle  67 NSaved=  20.
 NSaved=20 IEnMin= 1 EnMin= -1.63654171686750     IErMin=11 ErrMin= 7.14D-06
 ErrMax= 8.35D-05  0.00D+00 EMaxC= 1.00D-01 BMatC= 6.16D-07 BMatP= 7.88D-09
 IDIUse=1 WtCom= 1.00D+00 WtEn= 0.00D+00
 Large coefficients: NSaved= 20 BigCof=   11.95 CofMax=   10.00 Det=-3.40D-14
 Inversion failed.  Reducing to 19 matrices.
 Large coefficients: NSaved= 19 BigCof=   18.07 CofMax=   10.00 Det=-3.44D-14
 Inversion failed.  Reducing to 18 matrices.
 Large coefficients: NSaved= 18 BigCof=   19.63 CofMax=   10.00 Det=-3.51D-14
 Inversion failed.  Reducing to 17 matrices.
 Large coefficients: NSaved= 17 BigCof=  125.80 CofMax=   10.00 Det=-4.79D-14
 Inversion failed.  Reducing to 16 matrices.
 Large coefficients: NSaved= 16 BigCof=  126.32 CofMax=   10.00 Det=-4.80D-14
 Inversion failed.  Reducing to 15 matrices.
 Large coefficients: NSaved= 15 BigCof=  189.67 CofMax=   10.00 Det=-7.00D-14
 Inversion failed.  Reducing to 14 matrices.
 Large coefficients: NSaved= 14 BigCof=  199.60 CofMax=   10.00 Det=-7.26D-14
 Inversion failed.  Reducing to 13 matrices.
 Large coefficients: NSaved= 13 BigCof=  200.41 CofMax=   10.00 Det=-7.41D-14
 Inversion failed.  Reducing to 12 matrices.
 Large coefficients: NSaved= 12 BigCof=  210.43 CofMax=   10.00 Det=-7.86D-14
 Inversion failed.  Reducing to 11 matrices.
 Large coefficients: NSaved= 11 BigCof=  229.86 CofMax=   10.00 Det=-8.82D-14
 Inversion failed.  Reducing to 10 matrices.
 Large coefficients: NSaved= 10 BigCof=  230.90 CofMax=   10.00 Det=-9.26D-14
 Inversion failed.  Reducing to  9 matrices.
 Large coefficients: NSaved=  9 BigCof=  231.56 CofMax=   10.00 Det=-9.30D-14
 Inversion failed.  Reducing to  8 matrices.
 Large coefficients: NSaved=  8 BigCof=  231.66 CofMax=   10.00 Det=-9.30D-14
 Inversion failed.  Reducing to  7 matrices.
 Large coefficients: NSaved=  7 BigCof=  230.37 CofMax=   10.00 Det=-9.33D-14
[...]
 E= -1.63648575245514     Delta-E=       -0.000000000029 Rises=F Damp=F
 DIIS: error= 1.17D-07 at cycle  91 NSaved=  20.
 NSaved=20 IEnMin= 9 EnMin= -1.63648582148915     IErMin=20 ErrMin= 1.17D-07
 ErrMax= 1.17D-07  0.00D+00 EMaxC= 1.00D-01 BMatC= 1.15D-12 BMatP= 1.41D-12
 IDIUse=1 WtCom= 1.00D+00 WtEn= 0.00D+00
 Coeff-Com:  0.463D-02-0.126D-01 0.376D-01-0.658D-01 0.479D-02-0.330D-01
 Coeff-Com: -0.221D-01 0.406D-01 0.160D-01-0.106D+00-0.134D+00 0.111D+00
 Coeff-Com: -0.135D+00-0.454D-01 0.405D+00-0.245D-02-0.173D-01-0.237D+00
 Coeff-Com:  0.616D+00 0.575D+00
 Coeff:      0.463D-02-0.126D-01 0.376D-01-0.658D-01 0.479D-02-0.330D-01
 Coeff:     -0.221D-01 0.406D-01 0.160D-01-0.106D+00-0.134D+00 0.111D+00
 Coeff:     -0.135D+00-0.454D-01 0.405D+00-0.245D-02-0.173D-01-0.237D+00
 Coeff:      0.616D+00 0.575D+00
 Gap=     0.098 Goal=   None    Shift=    0.000
 RMSDP=1.45D-07 MaxDP=1.04D-06 DE=-2.93D-11 OVMax= 4.16D-06

 Cycle  92  Pass 1  IDiag  3:
 E= -1.63648575246822     Delta-E=       -0.000000000013 Rises=F Damp=F
 DIIS: error= 9.34D-08 at cycle  92 NSaved=  20.
 NSaved=20 IEnMin= 9 EnMin= -1.63648582148915     IErMin=20 ErrMin= 9.34D-08
 ErrMax= 9.34D-08  0.00D+00 EMaxC= 1.00D-01 BMatC= 4.63D-13 BMatP= 1.15D-12
 IDIUse=1 WtCom= 1.00D+00 WtEn= 0.00D+00
 Coeff-Com:  0.194D-03-0.982D-02 0.182D-01 0.237D-01-0.548D-01 0.416D-01
 Coeff-Com:  0.235D-01-0.517D-01-0.204D-01-0.382D-01-0.362D-01-0.862D-02
 Coeff-Com: -0.217D-01-0.812D-01 0.244D+00 0.269D-01 0.200D-01-0.158D+00
 Coeff-Com: -0.336D+00 0.142D+01
 Coeff:      0.194D-03-0.982D-02 0.182D-01 0.237D-01-0.548D-01 0.416D-01
 Coeff:      0.235D-01-0.517D-01-0.204D-01-0.382D-01-0.362D-01-0.862D-02
 Coeff:     -0.217D-01-0.812D-01 0.244D+00 0.269D-01 0.200D-01-0.158D+00
 Coeff:     -0.336D+00 0.142D+01
 Gap=     0.098 Goal=   None    Shift=    0.000
 RMSDP=4.10D-07 MaxDP=3.17D-06 DE=-1.31D-11 OVMax= 1.02D-05

 Cycle  93  Pass 1  IDiag  3:
 E= -1.63648575248294     Delta-E=       -0.000000000015 Rises=F Damp=F
 DIIS: error= 7.20D-08 at cycle  93 NSaved=  20.
 NSaved=20 IEnMin= 9 EnMin= -1.63648582148915     IErMin=20 ErrMin= 7.20D-08
 ErrMax= 7.20D-08  0.00D+00 EMaxC= 1.00D-01 BMatC= 2.33D-13 BMatP= 4.63D-13
 IDIUse=1 WtCom= 1.00D+00 WtEn= 0.00D+00
 Coeff-Com:  0.161D-02-0.393D-02 0.849D-02-0.284D-01 0.191D-01-0.445D-01
 Coeff-Com:  0.771D-02 0.134D+00-0.255D-01-0.664D-02-0.511D-01 0.415D-01
 Coeff-Com:  0.530D-02 0.269D-01-0.111D+00 0.447D-01-0.130D-01 0.104D-01
 Coeff-Com: -0.102D+01 0.200D+01
 Coeff:      0.161D-02-0.393D-02 0.849D-02-0.284D-01 0.191D-01-0.445D-01
 Coeff:      0.771D-02 0.134D+00-0.255D-01-0.664D-02-0.511D-01 0.415D-01
 Coeff:      0.530D-02 0.269D-01-0.111D+00 0.447D-01-0.130D-01 0.104D-01
 Coeff:     -0.102D+01 0.200D+01
 Gap=     0.098 Goal=   None    Shift=    0.000
 RMSDP=4.08D-07 MaxDP=3.09D-06 DE=-1.47D-11 OVMax= 1.10D-05

 Cycle  94  Pass 1  IDiag  3:
 E= -1.63648575249124     Delta-E=       -0.000000000008 Rises=F Damp=F
 DIIS: error= 3.65D-08 at cycle  94 NSaved=  20.
 NSaved=20 IEnMin= 9 EnMin= -1.63648582148915     IErMin=20 ErrMin= 3.65D-08
 ErrMax= 3.65D-08  0.00D+00 EMaxC= 1.00D-01 BMatC= 1.05D-13 BMatP= 2.33D-13
 IDIUse=1 WtCom= 1.00D+00 WtEn= 0.00D+00
 Coeff-Com:  0.141D-02-0.576D-02 0.547D-02 0.172D-01-0.317D-01 0.430D-01
 Coeff-Com:  0.372D-01-0.480D-01 0.193D-02-0.505D-01 0.417D-01-0.480D-01
 Coeff-Com:  0.872D-01-0.397D-01-0.251D-01 0.447D-01 0.379D-02-0.322D-01
 Coeff-Com: -0.437D+00 0.143D+01
 Coeff:      0.141D-02-0.576D-02 0.547D-02 0.172D-01-0.317D-01 0.430D-01
 Coeff:      0.372D-01-0.480D-01 0.193D-02-0.505D-01 0.417D-01-0.480D-01
 Coeff:      0.872D-01-0.397D-01-0.251D-01 0.447D-01 0.379D-02-0.322D-01
 Coeff:     -0.437D+00 0.143D+01
 Gap=     0.098 Goal=   None    Shift=    0.000
 RMSDP=1.40D-07 MaxDP=1.15D-06 DE=-8.30D-12 OVMax= 3.92D-06

 Cycle  95  Pass 1  IDiag  1:
 E= -1.63648575249471     Delta-E=       -0.000000000003 Rises=F Damp=F
 DIIS: error= 2.74D-08 at cycle  95 NSaved=  20.
 NSaved=20 IEnMin= 9 EnMin= -1.63648582148915     IErMin=20 ErrMin= 2.74D-08
 ErrMax= 2.74D-08  0.00D+00 EMaxC= 1.00D-01 BMatC= 2.96D-14 BMatP= 1.05D-13
 IDIUse=1 WtCom= 1.00D+00 WtEn= 0.00D+00
 Coeff-Com:  0.155D-04 0.797D-03 0.447D-03-0.205D-01 0.193D-01-0.237D-01
 Coeff-Com: -0.225D-01 0.702D-01-0.188D-01 0.757D-01-0.643D-01 0.205D-01
 Coeff-Com:  0.437D-02 0.235D-01-0.776D-01 0.173D-02-0.495D-02 0.128D-01
 Coeff-Com: -0.589D+00 0.159D+01
 Coeff:      0.155D-04 0.797D-03 0.447D-03-0.205D-01 0.193D-01-0.237D-01
 Coeff:     -0.225D-01 0.702D-01-0.188D-01 0.757D-01-0.643D-01 0.205D-01
 Coeff:      0.437D-02 0.235D-01-0.776D-01 0.173D-02-0.495D-02 0.128D-01
 Coeff:     -0.589D+00 0.159D+01
 RMSDP=2.97D-07 MaxDP=2.16D-06 DE=-3.47D-12 OVMax= 3.92D-06

 Cycle  96  Pass 1  IDiag  3:
 E= -1.63648575249459     Delta-E=        0.000000000000 Rises=F Damp=F
 DIIS: error= 1.18D-08 at cycle  96 NSaved=  20.
 NSaved=20 IEnMin= 9 EnMin= -1.63648582148915     IErMin=20 ErrMin= 1.18D-08
 ErrMax= 1.18D-08  0.00D+00 EMaxC= 1.00D-01 BMatC= 1.35D-14 BMatP= 2.96D-14
 IDIUse=1 WtCom= 1.00D+00 WtEn= 0.00D+00
 Coeff-Com:  0.335D-03-0.221D-02 0.227D-02 0.121D-01-0.147D-01 0.248D-01
 Coeff-Com:  0.166D-01-0.544D-01-0.113D-02 0.225D-02 0.199D-01-0.249D-01
 Coeff-Com:  0.335D-01-0.215D-01 0.236D-02 0.228D-01 0.336D-02-0.196D-01
 Coeff-Com: -0.323D+00 0.132D+01
 Coeff:      0.335D-03-0.221D-02 0.227D-02 0.121D-01-0.147D-01 0.248D-01
 Coeff:      0.166D-01-0.544D-01-0.113D-02 0.225D-02 0.199D-01-0.249D-01
 Coeff:      0.335D-01-0.215D-01 0.236D-02 0.228D-01 0.336D-02-0.196D-01
 Coeff:     -0.323D+00 0.132D+01
 Gap=     0.098 Goal=   None    Shift=    0.000
 RMSDP=9.30D-08 MaxDP=7.95D-07 DE= 1.14D-13 OVMax= 3.39D-06

 Cycle  97  Pass 1  IDiag  3:
 E= -1.63648575249505     Delta-E=       -0.000000000000 Rises=F Damp=F
 DIIS: error= 9.28D-09 at cycle  97 NSaved=  20.
 NSaved=20 IEnMin= 9 EnMin= -1.63648582148915     IErMin=20 ErrMin= 9.28D-09
 ErrMax= 9.28D-09  0.00D+00 EMaxC= 1.00D-01 BMatC= 4.21D-15 BMatP= 1.35D-14
 IDIUse=1 WtCom= 1.00D+00 WtEn= 0.00D+00
 Large coefficients: NSaved= 20 BigCof=    0.00 CofMax=   10.00 Det=-5.02D-15
 Inversion failed.  Reducing to 19 matrices.
 Large coefficients: NSaved= 19 BigCof=    0.00 CofMax=   10.00 Det=-6.09D-15
 Inversion failed.  Reducing to 18 matrices.
 Large coefficients: NSaved= 18 BigCof=    0.00 CofMax=   10.00 Det=-6.12D-15
 Inversion failed.  Reducing to 17 matrices.
 Large coefficients: NSaved= 17 BigCof=    0.00 CofMax=   10.00 Det=-6.53D-15
 Inversion failed.  Reducing to 16 matrices.
 Large coefficients: NSaved= 16 BigCof=    0.00 CofMax=   10.00 Det=-6.85D-15
 Inversion failed.  Reducing to 15 matrices.
 Coeff-Com:  0.120D-02-0.739D-02 0.430D-02-0.506D-03-0.259D-02 0.187D-01
 Coeff-Com:  0.285D-02 0.315D-02-0.136D-01 0.194D-02-0.967D-03 0.695D-02
 Coeff-Com: -0.167D-01 0.161D-01 0.986D+00
 Coeff:      0.120D-02-0.739D-02 0.430D-02-0.506D-03-0.259D-02 0.187D-01
 Coeff:      0.285D-02 0.315D-02-0.136D-01 0.194D-02-0.967D-03 0.695D-02
 Coeff:     -0.167D-01 0.161D-01 0.986D+00
 Gap=     0.098 Goal=   None    Shift=    0.000
 RMSDP=1.23D-07 MaxDP=9.99D-07 DE=-4.55D-13 OVMax= 4.54D-06

 Cycle  98  Pass 1  IDiag  3:
 E= -1.63648575249425     Delta-E=        0.000000000001 Rises=F Damp=F
 DIIS: error= 5.54D-09 at cycle  98 NSaved=  16.
 NSaved=16 IEnMin= 7 EnMin= -1.63648582148915     IErMin=16 ErrMin= 5.54D-09
 ErrMax= 5.54D-09  0.00D+00 EMaxC= 1.00D-01 BMatC= 3.89D-15 BMatP= 4.21D-15
 IDIUse=1 WtCom= 1.00D+00 WtEn= 0.00D+00
 Large coefficients: NSaved= 16 BigCof=    0.00 CofMax=   10.00 Det=-2.01D-15
 Inversion failed.  Reducing to 15 matrices.
 Coeff-Com:  0.144D-02-0.486D-02 0.303D-02 0.266D-02 0.128D-02 0.633D-02
 Coeff-Com:  0.159D-02-0.213D-01 0.159D-01-0.466D-02 0.325D-02 0.142D-03
 Coeff-Com: -0.567D-02 0.470D+00 0.530D+00
 Coeff:      0.144D-02-0.486D-02 0.303D-02 0.266D-02 0.128D-02 0.633D-02
 Coeff:      0.159D-02-0.213D-01 0.159D-01-0.466D-02 0.325D-02 0.142D-03
 Coeff:     -0.567D-02 0.470D+00 0.530D+00
 Gap=     0.098 Goal=   None    Shift=    0.000
 RMSDP=2.08D-08 MaxDP=1.65D-07 DE= 7.96D-13 OVMax= 7.55D-07

 Cycle  99  Pass 1  IDiag  3:
 E= -1.63648575249397     Delta-E=        0.000000000000 Rises=F Damp=F
 DIIS: error= 4.90D-09 at cycle  99 NSaved=  16.
 NSaved=16 IEnMin= 7 EnMin= -1.63648582148915     IErMin=16 ErrMin= 4.90D-09
 ErrMax= 4.90D-09  0.00D+00 EMaxC= 1.00D-01 BMatC= 1.29D-15 BMatP= 3.89D-15
 IDIUse=1 WtCom= 1.00D+00 WtEn= 0.00D+00
 Large coefficients: NSaved= 16 BigCof=    0.00 CofMax=   10.00 Det=-1.09D-15
 Inversion failed.  Reducing to 15 matrices.
 Coeff-Com: -0.296D-03 0.133D-03-0.169D-02-0.158D-02 0.182D-02 0.511D-02
 Coeff-Com: -0.105D-02-0.333D-03-0.589D-02 0.154D-02 0.133D-02 0.576D-03
 Coeff-Com:  0.193D-03-0.436D+00 0.144D+01
 Coeff:     -0.296D-03 0.133D-03-0.169D-02-0.158D-02 0.182D-02 0.511D-02
 Coeff:     -0.105D-02-0.333D-03-0.589D-02 0.154D-02 0.133D-02 0.576D-03
 Coeff:      0.193D-03-0.436D+00 0.144D+01
 Gap=     0.098 Goal=   None    Shift=    0.000
 RMSDP=2.26D-08 MaxDP=1.88D-07 DE= 2.84D-13 OVMax= 8.30D-07

 Cycle 100  Pass 1  IDiag  3:
 E= -1.63648575249448     Delta-E=       -0.000000000001 Rises=F Damp=F
 DIIS: error= 3.97D-09 at cycle 100 NSaved=  16.
 NSaved=16 IEnMin= 7 EnMin= -1.63648582148915     IErMin=16 ErrMin= 3.97D-09
 ErrMax= 3.97D-09  0.00D+00 EMaxC= 1.00D-01 BMatC= 7.61D-16 BMatP= 1.29D-15
 IDIUse=1 WtCom= 1.00D+00 WtEn= 0.00D+00
 Large coefficients: NSaved= 16 BigCof=    0.00 CofMax=   10.00 Det=-8.84D-17
 Inversion failed.  Reducing to 15 matrices.
 Coeff-Com:  0.127D-02-0.340D-02 0.231D-02-0.586D-03 0.102D-02 0.395D-02
 Coeff-Com:  0.152D-02-0.162D-01 0.137D-01-0.219D-02-0.379D-03 0.452D-03
 Coeff-Com: -0.157D-02-0.961D+00 0.196D+01
 Coeff:      0.127D-02-0.340D-02 0.231D-02-0.586D-03 0.102D-02 0.395D-02
 Coeff:      0.152D-02-0.162D-01 0.137D-01-0.219D-02-0.379D-03 0.452D-03
 Coeff:     -0.157D-02-0.961D+00 0.196D+01
 Gap=     0.098 Goal=   None    Shift=    0.000
 RMSDP=1.63D-08 MaxDP=1.51D-07 DE=-5.12D-13 OVMax= 5.70D-07

 Cycle 101  Pass 1  IDiag  3:
 E= -1.63648575249482     Delta-E=       -0.000000000000 Rises=F Damp=F
 DIIS: error= 1.91D-09 at cycle 101 NSaved=  16.
 NSaved=16 IEnMin= 7 EnMin= -1.63648582148915     IErMin=16 ErrMin= 1.91D-09
 ErrMax= 1.91D-09  0.00D+00 EMaxC= 1.00D-01 BMatC= 2.91D-16 BMatP= 7.61D-16
 IDIUse=1 WtCom= 1.00D+00 WtEn= 0.00D+00
 Large coefficients: NSaved= 16 BigCof=    0.00 CofMax=   10.00 Det=-4.66D-17
 Inversion failed.  Reducing to 15 matrices.
 Coeff-Com: -0.237D-03 0.106D-02-0.493D-03 0.130D-02-0.701D-03-0.158D-02
 Coeff-Com:  0.237D-02-0.707D-02 0.490D-02-0.102D-02 0.245D-02-0.909D-03
 Coeff-Com:  0.383D-06-0.697D+00 0.170D+01
 Coeff:     -0.237D-03 0.106D-02-0.493D-03 0.130D-02-0.701D-03-0.158D-02
 Coeff:      0.237D-02-0.707D-02 0.490D-02-0.102D-02 0.245D-02-0.909D-03
 Coeff:      0.383D-06-0.697D+00 0.170D+01
 Gap=     0.098 Goal=   None    Shift=    0.000
 RMSDP=1.17D-08 MaxDP=1.07D-07 DE=-3.41D-13 OVMax= 4.02D-07

 Cycle 102  Pass 1  IDiag  3:
 E= -1.63648575249476     Delta-E=        0.000000000000 Rises=F Damp=F
 DIIS: error= 8.49D-10 at cycle 102 NSaved=  16.
 NSaved=16 IEnMin= 7 EnMin= -1.63648582148915     IErMin=16 ErrMin= 8.49D-10
 ErrMax= 8.49D-10  0.00D+00 EMaxC= 1.00D-01 BMatC= 9.22D-17 BMatP= 2.91D-16
 IDIUse=1 WtCom= 1.00D+00 WtEn= 0.00D+00
 Large coefficients: NSaved= 16 BigCof=    0.00 CofMax=   10.00 Det=-3.33D-17
 Inversion failed.  Reducing to 15 matrices.
 Coeff-Com:  0.340D-03-0.158D-02 0.716D-03-0.617D-03-0.144D-02 0.224D-02
 Coeff-Com:  0.132D-02 0.259D-02-0.340D-02 0.414D-03 0.563D-03 0.353D-03
 Coeff-Com: -0.185D-02-0.258D+00 0.126D+01
 Coeff:      0.340D-03-0.158D-02 0.716D-03-0.617D-03-0.144D-02 0.224D-02
 Coeff:      0.132D-02 0.259D-02-0.340D-02 0.414D-03 0.563D-03 0.353D-03
 Coeff:     -0.185D-02-0.258D+00 0.126D+01
 Gap=     0.098 Goal=   None    Shift=    0.000
 RMSDP=1.32D-08 MaxDP=1.03D-07 DE= 5.68D-14 OVMax= 4.78D-07

 Cycle 103  Pass 1  IDiag  3:
 E= -1.63648575249414     Delta-E=        0.000000000001 Rises=F Damp=F
 DIIS: error= 6.49D-10 at cycle 103 NSaved=  16.
 NSaved=16 IEnMin= 7 EnMin= -1.63648582148915     IErMin=16 ErrMin= 6.49D-10
 ErrMax= 6.49D-10  0.00D+00 EMaxC= 1.00D-01 BMatC= 7.82D-17 BMatP= 9.22D-17
 IDIUse=1 WtCom= 1.00D+00 WtEn= 0.00D+00
 Large coefficients: NSaved= 16 BigCof=    0.00 CofMax=   10.00 Det=-3.30D-17
 Inversion failed.  Reducing to 15 matrices.
 Coeff-Com:  0.274D-03-0.591D-03 0.317D-03 0.952D-04-0.436D-03 0.645D-03
 Coeff-Com:  0.130D-02-0.561D-02 0.455D-02-0.926D-03 0.130D-02-0.342D-03
 Coeff-Com: -0.600D-03 0.382D+00 0.618D+00
 Coeff:      0.274D-03-0.591D-03 0.317D-03 0.952D-04-0.436D-03 0.645D-03
 Coeff:      0.130D-02-0.561D-02 0.455D-02-0.926D-03 0.130D-02-0.342D-03
 Coeff:     -0.600D-03 0.382D+00 0.618D+00
 Gap=     0.098 Goal=   None    Shift=    0.000
 RMSDP=8.24D-09 MaxDP=6.77D-08 DE= 6.25D-13 OVMax= 3.04D-07

 Cycle 104  Pass 2  IDiag  1:
 SCF Done:  E(RPM6) =  -1.63648575249     A.U. after  104 cycles
            NFock=103  Conv=0.82D-08     -V/T= 0.9864
 KE=-1.206763699581D+02 PE=-5.185018941936D+02 EE= 2.879171568588D+02
 Leave Link  502 at Fri Jan  7 12:01:57 2022, MaxMem=   402653184 cpu:             664.7 elap:              94.6
 (Enter /work/01114/jfonner/frontera/gaussian/16rC.01/g16/l601.exe)
 Copying SCF densities to generalized density rwf, IOpCl= 0 IROHF=0.

 **********************************************************************

            Population analysis using the SCF Density.

 **********************************************************************

 Alpha  occ. eigenvalues --   -1.69260  -1.62019  -1.59625  -1.52570  -1.44947
 Alpha  occ. eigenvalues --   -1.38898  -1.33325  -1.28811  -1.22079  -1.17411
 Alpha  occ. eigenvalues --   -1.12289  -1.07830  -1.06005  -1.04039  -1.02786
 Alpha  occ. eigenvalues --   -0.99956  -0.96746  -0.94941  -0.93188  -0.90523
 Alpha  occ. eigenvalues --   -0.89336  -0.86849  -0.85830  -0.83759  -0.82174
 Alpha  occ. eigenvalues --   -0.77973  -0.77405  -0.74774  -0.71852
 Alpha virt. eigenvalues --   -0.62052  -0.50783  -0.49787  -0.46767  -0.45473
 Alpha virt. eigenvalues --   -0.44576  -0.43152  -0.41462  -0.41143  -0.39683
 Alpha virt. eigenvalues --   -0.38493  -0.35326  -0.34278  -0.33489  -0.32472
 Alpha virt. eigenvalues --   -0.31378  -0.31276  -0.29109  -0.28820  -0.26441
 Alpha virt. eigenvalues --   -0.26033  -0.25111  -0.23212  -0.21091  -0.01936
          Condensed to atoms (all electrons):
               1          2          3          4          5          6
     1  N    4.806373   0.000000   0.000000   0.000000   0.000000   0.000000
     2  C    0.000000   3.862030   0.000000   0.000000   0.000000   0.000000
     3  C    0.000000   0.000000   3.522849   0.000000   0.000000   0.000000
     4  O    0.000000   0.000000   0.000000   6.339911   0.000000   0.000000
     5  N    0.000000   0.000000   0.000000   0.000000   5.275497   0.000000
     6  C    0.000000   0.000000   0.000000   0.000000   0.000000   3.593067
     7  C    0.000000   0.000000   0.000000   0.000000   0.000000   0.000000
     8  O    0.000000   0.000000   0.000000   0.000000   0.000000   0.000000
     9  N    0.000000   0.000000   0.000000   0.000000   0.000000   0.000000
    10  C    0.000000   0.000000   0.000000   0.000000   0.000000   0.000000
    11  C    0.000000   0.000000   0.000000   0.000000   0.000000   0.000000
    12  C    0.000000   0.000000   0.000000   0.000000   0.000000   0.000000
    13  C    0.000000   0.000000   0.000000   0.000000   0.000000   0.000000
    14  H    0.000000   0.000000   0.000000   0.000000   0.000000   0.000000
    15  H    0.000000   0.000000   0.000000   0.000000   0.000000   0.000000
               7          8          9         10         11         12
     1  N    0.000000   0.000000   0.000000   0.000000   0.000000   0.000000
     2  C    0.000000   0.000000   0.000000   0.000000   0.000000   0.000000
     3  C    0.000000   0.000000   0.000000   0.000000   0.000000   0.000000
     4  O    0.000000   0.000000   0.000000   0.000000   0.000000   0.000000
     5  N    0.000000   0.000000   0.000000   0.000000   0.000000   0.000000
     6  C    0.000000   0.000000   0.000000   0.000000   0.000000   0.000000
     7  C    3.708518   0.000000   0.000000   0.000000   0.000000   0.000000
     8  O    0.000000   6.138369   0.000000   0.000000   0.000000   0.000000
     9  N    0.000000   0.000000   5.170915   0.000000   0.000000   0.000000
    10  C    0.000000   0.000000   0.000000   3.600154   0.000000   0.000000
    11  C    0.000000   0.000000   0.000000   0.000000   5.053546   0.000000
    12  C    0.000000   0.000000   0.000000   0.000000   0.000000   2.951615
    13  C    0.000000   0.000000   0.000000   0.000000   0.000000   0.000000
    14  H    0.000000   0.000000   0.000000   0.000000   0.000000   0.000000
    15  H    0.000000   0.000000   0.000000   0.000000   0.000000   0.000000
              13         14         15
     1  N    0.000000   0.000000   0.000000
     2  C    0.000000   0.000000   0.000000
     3  C    0.000000   0.000000   0.000000
     4  O    0.000000   0.000000   0.000000
     5  N    0.000000   0.000000   0.000000
     6  C    0.000000   0.000000   0.000000
     7  C    0.000000   0.000000   0.000000
     8  O    0.000000   0.000000   0.000000
     9  N    0.000000   0.000000   0.000000
    10  C    0.000000   0.000000   0.000000
    11  C    0.000000   0.000000   0.000000
    12  C    0.000000   0.000000   0.000000
    13  C    2.961132   0.000000   0.000000
    14  H    0.000000   0.780310   0.000000
    15  H    0.000000   0.000000   0.235716
 Mulliken charges:
               1
     1  N    0.193627
     2  C    0.137970
     3  C    0.477151
     4  O   -0.339911
     5  N   -0.275497
     6  C    0.406933
     7  C    0.291482
     8  O   -0.138369
     9  N   -0.170915
    10  C    0.399846
    11  C   -1.053546
    12  C    1.048385
    13  C    1.038868
    14  H    0.219690
    15  H    0.764284
 Sum of Mulliken charges =   3.00000
 Mulliken charges with hydrogens summed into heavy atoms:
               1
     1  N    0.193627
     2  C    0.137970
     3  C    0.477151
     4  O   -0.339911
     5  N   -0.275497
     6  C    0.406933
     7  C    0.291482
     8  O   -0.138369
     9  N   -0.170915
    10  C    1.383820
    11  C   -1.053546
    12  C    1.048385
    13  C    1.038868
 Charge=              3.0000 electrons
 Dipole moment (field-independent basis, Debye):
    X=            -17.1104    Y=             -8.6223    Z=             60.3235  Tot=             63.2932
 N-N= 3.496246215403D+02 E-N=-5.185018942429D+02  KE=-1.206763699581D+02
 Leave Link  601 at Fri Jan  7 12:01:57 2022, MaxMem=   402653184 cpu:               2.0 elap:               0.1
 (Enter /work/01114/jfonner/frontera/gaussian/16rC.01/g16/l9999.exe)

 Test job not archived.
 1\1\GINC-C208-012\SP\RPM6\ZDO\C8H2N3O2(3+)\SA748948\07-Jan-2022\0\\#p 
 int=acc2e=12 pm6 charge nosymm\\Atom number=15\\3,1\N,0,-6.81500807,-0
 .66800154,1.60701401\C,0,-5.71398772,0.00200346,2.37299089\C,0,-4.3569
 9219,-0.6729987,2.58799322\O,0,-4.21199207,-1.86999463,2.49199032\N,0,
 -3.3810008,0.12499046,2.952998\C,0,-2.06200457,-0.39000497,3.27399921\
 C,0,-1.63600655,0.17499612,4.60000724\O,0,-1.74400817,1.35600031,4.861
 99097\N,0,-1.09500047,-0.70000479,5.41500454\C,0,-0.57199533,-0.311005
 55,6.66899843\C,0,-0.99299921,-0.04500171,2.19700167\C,0,0.38999976,-0
 .48799013,2.64000498\C,0,-1.3780015,-0.66198948,0.89701049\H,0,0.42341
 808,-0.69380181,6.75571159\H,0,-1.15902325,-0.7321969,7.45823608\\Vers
 ion=ES64L-G16RevC.01\HF=-1.6364858\RMSD=8.235e-09\Dipole=7.9722971,-1.
 5063122,4.293843\PG=C01 [X(C8H2N3O2)]\\@


 COLLEGE PROFESSOR: SOMEONE WHO TALKS IN OTHER PEOPLE'S SLEEP.
 Job cpu time:       0 days  0 hours 12 minutes  2.1 seconds.
 Elapsed time:       0 days  0 hours  1 minutes 44.2 seconds.
 File lengths (MBytes):  RWF=      6 Int=      0 D2E=      0 Chk=      2 Scr=      1
 Normal termination of Gaussian 16 at Fri Jan  7 12:01:57 2022.
