 Entering Gaussian System, Link 0=g16
 Input=NCCONCCOCCCNCCOCCCNCCOCCNCCNNCCONCCOCCCNCCOCOCNCCOCOCNCCOCCCNCCOCO_14.gjf
 Output=NCCONCCOCCCNCCOCCCNCCOCCNCCNNCCONCCOCCCNCCOCOCNCCOCOCNCCOCCCNCCOCO_14.log
 Initial command:
 /work/01114/jfonner/frontera/gaussian/16rC.01/g16/l1.exe "/scratch1/08249/sa748948/lsqc/26989325/Gau-47414.inp" -scrdir="/scratch1/08249/sa748948/lsqc/26989325/"
 Entering Link 1 = /work/01114/jfonner/frontera/gaussian/16rC.01/g16/l1.exe PID=     47415.
  
 Copyright (c) 1988-2019, Gaussian, Inc.  All Rights Reserved.
  
 This is part of the Gaussian(R) 16 program.  It is based on
 the Gaussian(R) 09 system (copyright 2009, Gaussian, Inc.),
 the Gaussian(R) 03 system (copyright 2003, Gaussian, Inc.),
 the Gaussian(R) 98 system (copyright 1998, Gaussian, Inc.),
 the Gaussian(R) 94 system (copyright 1995, Gaussian, Inc.),
 the Gaussian 92(TM) system (copyright 1992, Gaussian, Inc.),
 the Gaussian 90(TM) system (copyright 1990, Gaussian, Inc.),
 the Gaussian 88(TM) system (copyright 1988, Gaussian, Inc.),
 the Gaussian 86(TM) system (copyright 1986, Carnegie Mellon
 University), and the Gaussian 82(TM) system (copyright 1983,
 Carnegie Mellon University). Gaussian is a federally registered
 trademark of Gaussian, Inc.
  
 This software contains proprietary and confidential information,
 including trade secrets, belonging to Gaussian, Inc.
  
 This software is provided under written license and may be
 used, copied, transmitted, or stored only in accord with that
 written license.
  
 The following legend is applicable only to US Government
 contracts under FAR:
  
                    RESTRICTED RIGHTS LEGEND
  
 Use, reproduction and disclosure by the US Government is
 subject to restrictions as set forth in subparagraphs (a)
 and (c) of the Commercial Computer Software - Restricted
 Rights clause in FAR 52.227-19.
  
 Gaussian, Inc.
 340 Quinnipiac St., Bldg. 40, Wallingford CT 06492
  
  
 ---------------------------------------------------------------
 Warning -- This program may not be used in any manner that
 competes with the business of Gaussian, Inc. or will provide
 assistance to any competitor of Gaussian, Inc.  The licensee
 of this program is prohibited from giving any competitor of
 Gaussian, Inc. access to this program.  By using this program,
 the user acknowledges that Gaussian, Inc. is engaged in the
 business of creating and licensing software in the field of
 computational chemistry and represents and warrants to the
 licensee that it is not a competitor of Gaussian, Inc. and that
 it will not use this program in any manner prohibited above.
 ---------------------------------------------------------------
  

 Cite this work as:
 Gaussian 16, Revision C.01,
 M. J. Frisch, G. W. Trucks, H. B. Schlegel, G. E. Scuseria, 
 M. A. Robb, J. R. Cheeseman, G. Scalmani, V. Barone, 
 G. A. Petersson, H. Nakatsuji, X. Li, M. Caricato, A. V. Marenich, 
 J. Bloino, B. G. Janesko, R. Gomperts, B. Mennucci, H. P. Hratchian, 
 J. V. Ortiz, A. F. Izmaylov, J. L. Sonnenberg, D. Williams-Young, 
 F. Ding, F. Lipparini, F. Egidi, J. Goings, B. Peng, A. Petrone, 
 T. Henderson, D. Ranasinghe, V. G. Zakrzewski, J. Gao, N. Rega, 
 G. Zheng, W. Liang, M. Hada, M. Ehara, K. Toyota, R. Fukuda, 
 J. Hasegawa, M. Ishida, T. Nakajima, Y. Honda, O. Kitao, H. Nakai, 
 T. Vreven, K. Throssell, J. A. Montgomery, Jr., J. E. Peralta, 
 F. Ogliaro, M. J. Bearpark, J. J. Heyd, E. N. Brothers, K. N. Kudin, 
 V. N. Staroverov, T. A. Keith, R. Kobayashi, J. Normand, 
 K. Raghavachari, A. P. Rendell, J. C. Burant, S. S. Iyengar, 
 J. Tomasi, M. Cossi, J. M. Millam, M. Klene, C. Adamo, R. Cammi, 
 J. W. Ochterski, R. L. Martin, K. Morokuma, O. Farkas, 
 J. B. Foresman, and D. J. Fox, Gaussian, Inc., Wallingford CT, 2019.
 
 ******************************************
 Gaussian 16:  ES64L-G16RevC.01  3-Jul-2019
                 7-Jan-2022 
 ******************************************
 %chk=NCCONCCOCCCNCCOCCCNCCOCCNCCNNCCONCCOCCCNCCOCOCNCCOCOCNCCOCCCNCCOCO_14.chk
 %nproc=56
 Will use up to   56 processors via shared memory.
 %mem=3gb
 ---------------------------------
 #p int=acc2e=12 pm6 charge nosymm
 ---------------------------------
 1/18=10,28=-2,38=1,125=101,172=1/1;
 2/12=2,15=1,17=6,18=5,40=1/2;
 3/5=2,25=1,27=12,41=3900000/1,2,3;
 4/35=1/1;
 5/5=2,35=1,38=5,87=12/2;
 6/7=2,8=2,9=2,10=2,28=1,87=12/1;
 99/5=1,9=1/99;
 Leave Link    1 at Fri Jan  7 12:01:15 2022, MaxMem=   402653184 cpu:               4.1 elap:               0.7
 (Enter /work/01114/jfonner/frontera/gaussian/16rC.01/g16/l101.exe)
 --------------
 Atom number=14
 --------------
 Symbolic Z-matrix:
 Charge =  0 Multiplicity = 1
 c                     3.006     0.047     14.36101 
 o                     2.95799  -1.169     14.515 
 n                     3.481     0.887     15.26199 
 c                     4.163     0.39199   16.44199 
 c                     3.424     0.96499   17.63099 
 o                     3.136     2.11      17.61199 
 n                     3.173     0.129     18.647 
 c                     2.559     0.51601   19.90301 
 c                     5.688     0.75001   16.38901 
 o                     6.264     0.13001   15.23599 
 h                     2.70244   0.50123   13.441 
 h                     6.2137    0.36219   17.23644 
 h                     3.12112   0.0626    20.69254 
 h                     1.55948   0.13828   19.95928 
 
 ITRead=  0  0  0  0  0  0  0  0  0  0  0  0  0  0
 MicOpt= -1 -1 -1 -1 -1 -1 -1 -1 -1 -1 -1 -1 -1 -1
 NAtoms=     14 NQM=       14 NQMF=       0 NMMI=      0 NMMIF=      0
                NMic=       0 NMicF=      0.
                    Isotopes and Nuclear Properties:
 (Nuclear quadrupole moments (NQMom) in fm**2, nuclear magnetic moments (NMagM)
  in nuclear magnetons)

  Atom         1           2           3           4           5           6           7           8           9          10
 IAtWgt=          12          16          14          12          12          16          14          12          12          16
 AtmWgt=  12.0000000  15.9949146  14.0030740  12.0000000  12.0000000  15.9949146  14.0030740  12.0000000  12.0000000  15.9949146
 NucSpn=           0           0           2           0           0           0           2           0           0           0
 AtZEff=  -0.0000000  -0.0000000  -0.0000000  -0.0000000  -0.0000000  -0.0000000  -0.0000000  -0.0000000  -0.0000000  -0.0000000
 NQMom=    0.0000000   0.0000000   2.0440000   0.0000000   0.0000000   0.0000000   2.0440000   0.0000000   0.0000000   0.0000000
 NMagM=    0.0000000   0.0000000   0.4037610   0.0000000   0.0000000   0.0000000   0.4037610   0.0000000   0.0000000   0.0000000
 AtZNuc=   6.0000000   8.0000000   7.0000000   6.0000000   6.0000000   8.0000000   7.0000000   6.0000000   6.0000000   8.0000000

  Atom        11          12          13          14
 IAtWgt=           1           1           1           1
 AtmWgt=   1.0078250   1.0078250   1.0078250   1.0078250
 NucSpn=           1           1           1           1
 AtZEff=  -0.0000000  -0.0000000  -0.0000000  -0.0000000
 NQMom=    0.0000000   0.0000000   0.0000000   0.0000000
 NMagM=    2.7928460   2.7928460   2.7928460   2.7928460
 AtZNuc=   1.0000000   1.0000000   1.0000000   1.0000000
 Background charge distribution read from input stream:
 Point Charges:
 XYZ=   -6.8150   -0.6680    1.6070 Q=    0.1840 A=    0.0000 R=    0.0000 C=    0.0000
 XYZ=   -5.7140    0.0020    2.3730 Q=    0.1690 A=    0.0000 R=    0.0000 C=    0.0000
 XYZ=   -4.3570   -0.6730    2.5880 Q=    0.1957 A=    0.0000 R=    0.0000 C=    0.0000
 XYZ=   -4.2120   -1.8700    2.4920 Q=   -0.4612 A=    0.0000 R=    0.0000 C=    0.0000
 XYZ=   -3.3810    0.1250    2.9530 Q=   -0.3003 A=    0.0000 R=    0.0000 C=    0.0000
 XYZ=   -2.0620   -0.3900    3.2740 Q=    0.2639 A=    0.0000 R=    0.0000 C=    0.0000
 XYZ=   -1.6360    0.1750    4.6000 Q=    0.1489 A=    0.0000 R=    0.0000 C=    0.0000
 XYZ=   -1.7440    1.3560    4.8620 Q=   -0.3095 A=    0.0000 R=    0.0000 C=    0.0000
 XYZ=   -0.9930   -0.0450    2.1970 Q=   -1.2213 A=    0.0000 R=    0.0000 C=    0.0000
 XYZ=    0.3900   -0.4880    2.6400 Q=    0.9359 A=    0.0000 R=    0.0000 C=    0.0000
 XYZ=   -1.3780   -0.6620    0.8970 Q=    0.8742 A=    0.0000 R=    0.0000 C=    0.0000
 XYZ=   -1.0950   -0.7000    5.4150 Q=   -0.4278 A=    0.0000 R=    0.0000 C=    0.0000
 XYZ=   -0.5720   -0.3110    6.6690 Q=    0.2444 A=    0.0000 R=    0.0000 C=    0.0000
 XYZ=    0.8400   -0.8540    6.7920 Q=    0.2936 A=    0.0000 R=    0.0000 C=    0.0000
 XYZ=    1.0270   -2.0220    6.7200 Q=   -0.4614 A=    0.0000 R=    0.0000 C=    0.0000
 XYZ=   -1.4110   -0.9130    7.7970 Q=   -1.2094 A=    0.0000 R=    0.0000 C=    0.0000
 XYZ=   -0.7270   -0.6450    9.1230 Q=    0.9838 A=    0.0000 R=    0.0000 C=    0.0000
 XYZ=   -2.8000   -0.3490    7.7890 Q=    0.9737 A=    0.0000 R=    0.0000 C=    0.0000
 XYZ=    1.8100    0.0020    7.0230 Q=   -0.6094 A=    0.0000 R=    0.0000 C=    0.0000
 XYZ=    3.1910   -0.4290    7.1010 Q=   -0.0383 A=    0.0000 R=    0.0000 C=    0.0000
 XYZ=    3.9110    0.2580    8.2290 Q=    0.2652 A=    0.0000 R=    0.0000 C=    0.0000
 XYZ=    4.0640    1.4780    8.2280 Q=   -0.5489 A=    0.0000 R=    0.0000 C=    0.0000
 XYZ=    3.8710   -0.1030    5.7480 Q=    0.4467 A=    0.0000 R=    0.0000 C=    0.0000
 XYZ=    5.2470   -0.6430    5.5810 Q=   -0.4177 A=    0.0000 R=    0.0000 C=    0.0000
 XYZ=    5.8610   -0.6890    4.3530 Q=   -0.2968 A=    0.0000 R=    0.0000 C=    0.0000
 XYZ=    6.1080   -1.1970    6.4480 Q=    0.2630 A=    0.0000 R=    0.0000 C=    0.0000
 XYZ=    7.0590   -1.2270    4.4820 Q=    0.6103 A=    0.0000 R=    0.0000 C=    0.0000
 XYZ=    7.2390   -1.5230    5.7510 Q=   -0.3347 A=    0.0000 R=    0.0000 C=    0.0000
 XYZ=    4.3640   -0.5270    9.1890 Q=   -0.5070 A=    0.0000 R=    0.0000 C=    0.0000
 XYZ=    5.0670    0.0200   10.3260 Q=    0.3996 A=    0.0000 R=    0.0000 C=    0.0000
 XYZ=    4.2710    0.8170   11.2960 Q=    0.1621 A=    0.0000 R=    0.0000 C=    0.0000
 XYZ=    4.3590    2.0330   11.3670 Q=   -0.2980 A=    0.0000 R=    0.0000 C=    0.0000
 XYZ=    3.4920    0.1040   12.0730 Q=   -0.4667 A=    0.0000 R=    0.0000 C=    0.0000
 XYZ=    2.5850    0.6770   13.0850 Q=    0.2746 A=    0.0000 R=    0.0000 C=    0.0000
 XYZ=    1.1270    0.3300   12.8270 Q=   -1.2217 A=    0.0000 R=    0.0000 C=    0.0000
 XYZ=    0.2480    0.6750   14.0380 Q=    0.9822 A=    0.0000 R=    0.0000 C=    0.0000
 XYZ=    0.6740    1.0470   11.5960 Q=    0.9278 A=    0.0000 R=    0.0000 C=    0.0000
 XYZ=    6.4200    0.2100   17.5690 Q=    0.9463 A=    0.0000 R=    0.0000 C=    0.0000
 XYZ=    3.3500   -0.1220   21.0140 Q=    0.1847 A=    0.0000 R=    0.0000 C=    0.0000
 XYZ=    3.3660   -1.3390   21.1400 Q=   -0.4163 A=    0.0000 R=    0.0000 C=    0.0000
 XYZ=    1.1380   -0.0210   19.9830 Q=   -0.2907 A=    0.0000 R=    0.0000 C=    0.0000
 XYZ=    0.3930    0.3940   18.8240 Q=   -0.3415 A=    0.0000 R=    0.0000 C=    0.0000
 XYZ=    0.4860    0.5010   21.1670 Q=    0.7765 A=    0.0000 R=    0.0000 C=    0.0000
 XYZ=    4.0670    0.6880   21.7680 Q=   -0.6191 A=    0.0000 R=    0.0000 C=    0.0000
 XYZ=    4.8880    0.2050   22.8510 Q=    0.2833 A=    0.0000 R=    0.0000 C=    0.0000
 XYZ=    4.3500    0.7690   24.1740 Q=    0.1730 A=    0.0000 R=    0.0000 C=    0.0000
 XYZ=    4.1610    1.9810   24.2690 Q=   -0.2861 A=    0.0000 R=    0.0000 C=    0.0000
 XYZ=    6.3620    0.6140   22.6520 Q=   -1.1933 A=    0.0000 R=    0.0000 C=    0.0000
 XYZ=    7.1520    0.2970   23.8740 Q=    0.8585 A=    0.0000 R=    0.0000 C=    0.0000
 XYZ=    6.9530   -0.1210   21.4550 Q=    0.9590 A=    0.0000 R=    0.0000 C=    0.0000
 XYZ=    4.0650   -0.1200   25.1510 Q=   -0.4907 A=    0.0000 R=    0.0000 C=    0.0000
 XYZ=    3.7200    0.3130   26.5150 Q=   -0.3576 A=    0.0000 R=    0.0000 C=    0.0000
 XYZ=    4.9410    0.1400   27.4200 Q=    0.0549 A=    0.0000 R=    0.0000 C=    0.0000
 XYZ=    5.7140   -0.8090   27.2870 Q=   -0.0565 A=    0.0000 R=    0.0000 C=    0.0000
 XYZ=    2.4990   -0.4220   27.0620 Q=    1.1023 A=    0.0000 R=    0.0000 C=    0.0000
 XYZ=    5.2500    0.9550   28.2940 Q=    0.3115 A=    0.0000 R=    0.0000 C=    0.0000
 Pt Chg Charge=              2.0667 electrons
 Pt Chg Dipole moment (Debye):
    X=             23.4900    Y=             -0.5918    Z=            198.8404  Tot=            200.2240
 Pt Chg Quadrupole moment (Debye-Ang):
   XX=            386.5647   YY=            -30.3347   ZZ=           4751.0768
   XY=            -37.0056   XZ=            767.1453   YZ=            -16.8210
 Pt Chg Traceless Quadrupole moment (Debye-Ang):
   XX=          -1315.8709   YY=          -1732.7703   ZZ=           3048.6412
   XY=            -37.0056   XZ=            767.1453   YZ=            -16.8210
 Pt Chg Octapole moment (Debye-Ang**2):
  XXX=           2357.2339  YYY=              9.3418  ZZZ=         116180.3219  XYY=            -50.3690
  XXY=           -164.1488  XXZ=           7157.0022  XZZ=          19528.8018  YZZ=          -1128.2579
  YYZ=           -315.4583  XYZ=           -502.1444
 Pt Chg Hexadecapole moment (Debye-Ang**3):
 XXXX=          23607.1807 YYYY=           -128.2550 ZZZZ=        2952765.6733 XXXY=           -977.1809
 XXXZ=          53850.6608 YYYX=           -152.3405 YYYZ=           -119.9893 ZZZX=         480804.4066
 ZZZY=         -36901.2536 XXYY=           -456.2649 XXZZ=         154505.3596 YYZZ=          -4730.4743
 XXYZ=          -2296.9794 YYXZ=          -1200.3982 ZZXY=          -9309.2705
 Leave Link  101 at Fri Jan  7 12:01:16 2022, MaxMem=   402653184 cpu:               6.8 elap:               1.4
 (Enter /work/01114/jfonner/frontera/gaussian/16rC.01/g16/l202.exe)
                          Input orientation:                          
 ---------------------------------------------------------------------
 Center     Atomic      Atomic             Coordinates (Angstroms)
 Number     Number       Type             X           Y           Z
 ---------------------------------------------------------------------
      1          6           0        3.005998    0.046997   14.361015
      2          8           0        2.957993   -1.169004   14.515002
      3          7           0        3.481002    0.887001   15.261988
      4          6           0        4.163003    0.391994   16.441992
      5          6           0        3.424000    0.964988   17.630990
      6          8           0        3.136003    2.109999   17.611994
      7          7           0        3.173005    0.128997   18.646999
      8          6           0        2.559005    0.516008   19.903015
      9          6           0        5.687995    0.750014   16.389012
     10          8           0        6.263999    0.130006   15.235994
     11          1           0        2.702444    0.501228   13.440999
     12          1           0        6.213698    0.362193   17.236438
     13          1           0        3.121118    0.062604   20.692542
     14          1           0        1.559477    0.138282   19.959284
 ---------------------------------------------------------------------
                    Distance matrix (angstroms):
                    1          2          3          4          5
     1  C    0.000000
     2  O    1.226652   0.000000
     3  N    1.320224   2.249152   0.000000
     4  C    2.405858   2.757182   1.450023   0.000000
     5  C    3.422013   3.805321   2.370971   1.512668   0.000000
     6  O    3.852499   4.513858   2.671568   2.318443   1.180828
     7  N    4.290021   4.336409   3.482490   2.431321   1.339460
     8  C    5.579744   5.659429   4.746245   3.816657   2.472224
     9  C    3.435130   3.827200   2.481888   1.567351   2.591216
    10  O    3.374471   3.624491   2.884232   2.436648   3.807729
    11  H    1.070000   2.002115   2.017666   3.339330   4.276885
    12  H    4.319346   4.511141   3.411965   2.199405   2.881223
    13  H    6.332593   6.301227   5.504549   4.388758   3.206108
    14  H    5.782852   5.771053   5.130052   4.383385   3.095294
                    6          7          8          9         10
     6  O    0.000000
     7  N    2.235392   0.000000
     8  C    2.850002   1.450637   0.000000
     9  C    3.139731   3.436473   4.711004   0.000000
    10  O    4.398876   4.603173   5.971354   1.430259   0.000000
    11  H    4.491472   5.240461   6.463625   4.203117   4.005558
    12  H    3.559223   3.360041   4.526706   1.070000   2.014502
    13  H    3.698895   2.047277   1.070000   5.057842   6.297314
    14  H    3.447155   2.079820   1.070000   5.492334   6.666489
                   11         12         13         14
    11  H    0.000000
    12  H    5.172388   0.000000
    13  H    7.276851   4.647414   0.000000
    14  H    6.627681   5.396832   1.726881   0.000000
 Symmetry turned off by external request.
 Stoichiometry    C5H4N2O3
 Framework group  C1[X(C5H4N2O3)]
 Deg. of freedom    36
 Full point group                 C1      NOp   1
 Rotational constants (GHZ):           1.9688839           0.8943591           0.7492195
 Leave Link  202 at Fri Jan  7 12:01:17 2022, MaxMem=   402653184 cpu:               3.3 elap:               0.7
 (Enter /work/01114/jfonner/frontera/gaussian/16rC.01/g16/l301.exe)
 Standard basis: VSTO-6G (5D, 7F)
 Ernie: Thresh=  0.10000D-02 Tol=  0.10000D-05 Strict=F.
  NNHCO=     0 NNPyr=     0 NCTC=     0               EPep=         0.000000000
    EC=       212.585031941  ECS=         3.288718287   EG=         0.260779938
   EHC=         0.001251988  EAt=       -67.335061145  AtH=         2.338665885
 EPDDG=         0.000000000  ECC=       216.135782153 EAtT=        69.673727030
    44 basis functions,   264 primitive gaussians,    44 cartesian basis functions
    26 alpha electrons       26 beta electrons
       nuclear repulsion energy       285.8095091836 Hartrees.
 IExCor=    0 DFT=F Ex=HF Corr=None ExCW=0 ScaHFX=  1.000000
 ScaDFX=  1.000000  1.000000  1.000000  1.000000 ScalE2=  1.000000  1.000000
 IRadAn=      5 IRanWt=     -1 IRanGd=            0 ICorTp=0 IEmpDi=  4
 Integral buffers will be    131072 words long.
 Regular integral format.
 Two-electron integral symmetry is turned off.
 Background charge distribution read from rwf.
 PtFMM for NChg=        70 BoxLen=    40.00 Levels= 1 LMax=20 SMax=    51.8 ICnFMM=     1:
 Self energy of the charges =        -3.6471174585 a.u.
 MM   energy of the charges =         0.0000000000 a.u.
 Nuclei-charges interaction =         9.9222985177 a.u.
 Nuclear repulsion after external point charges =      292.0846902428 Hartrees.
 Leave Link  301 at Fri Jan  7 12:01:18 2022, MaxMem=   402653184 cpu:               4.6 elap:               0.9
 (Enter /work/01114/jfonner/frontera/gaussian/16rC.01/g16/l302.exe)
 Do NDO integrals.
 NPDir=0 NMtPBC=     1 NCelOv=     1 NCel=       1 NClECP=     1 NCelD=      1
         NCelK=      1 NCelE2=     1 NClLst=     1 CellRange=     0.0.
 One-electron integrals computed using PRISM.
 NBasis=    44 RedAO= F EigKep=  0.00D+00  NBF=    44
 NBsUse=    44 1.00D-04 EigRej=  0.00D+00 NBFU=    44
 Leave Link  302 at Fri Jan  7 12:01:22 2022, MaxMem=   402653184 cpu:              25.5 elap:               4.1
 (Enter /work/01114/jfonner/frontera/gaussian/16rC.01/g16/l303.exe)
 DipDrv:  MaxL=1.
 Leave Link  303 at Fri Jan  7 12:01:23 2022, MaxMem=   402653184 cpu:               3.5 elap:               0.6
 (Enter /work/01114/jfonner/frontera/gaussian/16rC.01/g16/l401.exe)
 Simple Huckel Guess.
 JPrj=0 DoOrth=F DoCkMO=F.
 Leave Link  401 at Fri Jan  7 12:01:24 2022, MaxMem=   402653184 cpu:               8.2 elap:               1.4
 (Enter /work/01114/jfonner/frontera/gaussian/16rC.01/g16/l502.exe)
 Keep J ints in memory in canonical form, NReq=865179.
 FoFCou: FMM=F IPFlag=           0 FMFlag=           0 FMFlg1=           0
         NFxFlg=           0 DoJE=F BraDBF=F KetDBF=F FulRan=T
         wScrn=  0.000000 ICntrl=       600 IOpCl=  2 I1Cent=           0 NGrid=           0
         NMat0=    1 NMatS0=    104 NMatT0=    0 NMatD0=    1 NMtDS0=    0 NMtDT0=    0
 Symmetry not used in FoFCou.
 Two-electron integral symmetry not used.
 Closed shell SCF:
 Using DIIS extrapolation, IDIIS=  1040.
 Overlap will be assumed to be unity.
 NGot=   402653184 LenX=   402581398 LenY=   402579021
 Requested convergence on RMS density matrix=1.00D-08 within 128 cycles.
 Requested convergence on MAX density matrix=1.00D-06.
 Requested convergence on             energy=1.00D-06.
 No special actions if energy rises.

 Cycle   1  Pass 1  IDiag  1:
 E= -2.13117209489974    
 DIIS: error= 4.55D-02 at cycle   1 NSaved=   1.
 NSaved= 1 IEnMin= 1 EnMin= -2.13117209489974     IErMin= 1 ErrMin= 4.55D-02
 ErrMax= 4.55D-02  0.00D+00 EMaxC= 1.00D-01 BMatC= 1.53D-01 BMatP= 1.53D-01
 IDIUse=3 WtCom= 5.45D-01 WtEn= 4.55D-01
 Coeff-Com:  0.100D+01
 Coeff-En:   0.100D+01
 Coeff:      0.100D+01
 GapD=    2.000 DampG=2.000 DampE=0.500 DampFc=1.0000 IDamp=-1.
 RMSDP=3.70D-02 MaxDP=6.48D-01              OVMax= 0.00D+00

 Cycle   2  Pass 1  IDiag  1:
 E= -2.18531431166366     Delta-E=       -0.054142216764 Rises=F Damp=F
 DIIS: error= 5.05D-02 at cycle   2 NSaved=   2.
 NSaved= 2 IEnMin= 2 EnMin= -2.18531431166366     IErMin= 1 ErrMin= 4.55D-02
 ErrMax= 5.05D-02  0.00D+00 EMaxC= 1.00D-01 BMatC= 1.35D-01 BMatP= 1.53D-01
 IDIUse=3 WtCom= 4.95D-01 WtEn= 5.05D-01
 Coeff-Com:  0.466D+00 0.534D+00
 Coeff-En:   0.444D+00 0.556D+00
 Coeff:      0.455D+00 0.545D+00
 RMSDP=3.23D-02 MaxDP=6.24D-01 DE=-5.41D-02 OVMax= 0.00D+00

 Cycle   3  Pass 1  IDiag  1:
 E= -2.77852357304812     Delta-E=       -0.593209261384 Rises=F Damp=F
 DIIS: error= 2.09D-02 at cycle   3 NSaved=   3.
 NSaved= 3 IEnMin= 3 EnMin= -2.77852357304812     IErMin= 3 ErrMin= 2.09D-02
 ErrMax= 2.09D-02  0.00D+00 EMaxC= 1.00D-01 BMatC= 3.00D-02 BMatP= 1.35D-01
 IDIUse=3 WtCom= 7.91D-01 WtEn= 2.09D-01
 Coeff-Com: -0.274D+00 0.250D+00 0.102D+01
 Coeff-En:   0.000D+00 0.000D+00 0.100D+01
 Coeff:     -0.217D+00 0.198D+00 0.102D+01
 RMSDP=1.02D-02 MaxDP=9.08D-02 DE=-5.93D-01 OVMax= 0.00D+00

 Cycle   4  Pass 1  IDiag  1:
 E= -2.91173913053751     Delta-E=       -0.133215557489 Rises=F Damp=F
 DIIS: error= 9.27D-03 at cycle   4 NSaved=   4.
 NSaved= 4 IEnMin= 4 EnMin= -2.91173913053751     IErMin= 4 ErrMin= 9.27D-03
 ErrMax= 9.27D-03  0.00D+00 EMaxC= 1.00D-01 BMatC= 3.36D-03 BMatP= 3.00D-02
 IDIUse=3 WtCom= 9.07D-01 WtEn= 9.27D-02
 Coeff-Com:  0.646D-01-0.520D-02-0.414D+00 0.135D+01
 Coeff-En:   0.000D+00 0.000D+00 0.000D+00 0.100D+01
 Coeff:      0.586D-01-0.472D-02-0.376D+00 0.132D+01
 RMSDP=5.54D-03 MaxDP=4.57D-02 DE=-1.33D-01 OVMax= 0.00D+00

 Cycle   5  Pass 1  IDiag  3:
 E= -2.93558549783791     Delta-E=       -0.023846367300 Rises=F Damp=F
 DIIS: error= 2.79D-03 at cycle   5 NSaved=   5.
 NSaved= 5 IEnMin= 5 EnMin= -2.93558549783791     IErMin= 5 ErrMin= 2.79D-03
 ErrMax= 2.79D-03  0.00D+00 EMaxC= 1.00D-01 BMatC= 4.22D-04 BMatP= 3.36D-03
 IDIUse=3 WtCom= 9.72D-01 WtEn= 2.79D-02
 Coeff-Com: -0.101D-01-0.198D-01 0.603D-01-0.380D+00 0.135D+01
 Coeff-En:   0.000D+00 0.000D+00 0.000D+00 0.000D+00 0.100D+01
 Coeff:     -0.980D-02-0.192D-01 0.586D-01-0.369D+00 0.134D+01
 Gap=     0.199 Goal=   None    Shift=    0.000
 RMSDP=2.82D-03 MaxDP=2.17D-02 DE=-2.38D-02 OVMax= 4.86D-02

 Cycle   6  Pass 1  IDiag  3:
 E= -2.94025309079575     Delta-E=       -0.004667592958 Rises=F Damp=F
 DIIS: error= 1.76D-03 at cycle   6 NSaved=   6.
 NSaved= 6 IEnMin= 6 EnMin= -2.94025309079575     IErMin= 6 ErrMin= 1.76D-03
 ErrMax= 1.76D-03  0.00D+00 EMaxC= 1.00D-01 BMatC= 1.59D-04 BMatP= 4.22D-04
 IDIUse=3 WtCom= 9.82D-01 WtEn= 1.76D-02
 Coeff-Com: -0.473D-02-0.487D-02 0.498D-01 0.978D-01-0.814D+00 0.168D+01
 Coeff-En:   0.000D+00 0.000D+00 0.000D+00 0.000D+00 0.000D+00 0.100D+01
 Coeff:     -0.465D-02-0.479D-02 0.490D-01 0.961D-01-0.800D+00 0.166D+01
 Gap=     0.204 Goal=   None    Shift=    0.000
 RMSDP=1.94D-03 MaxDP=1.54D-02 DE=-4.67D-03 OVMax= 3.81D-02

 Cycle   7  Pass 1  IDiag  3:
 E= -2.94225700712855     Delta-E=       -0.002003916333 Rises=F Damp=F
 DIIS: error= 8.41D-04 at cycle   7 NSaved=   7.
 NSaved= 7 IEnMin= 7 EnMin= -2.94225700712855     IErMin= 7 ErrMin= 8.41D-04
 ErrMax= 8.41D-04  0.00D+00 EMaxC= 1.00D-01 BMatC= 4.85D-05 BMatP= 1.59D-04
 IDIUse=3 WtCom= 9.92D-01 WtEn= 8.41D-03
 Coeff-Com:  0.291D-02 0.115D-02-0.292D-01-0.652D-01 0.491D+00-0.144D+01
 Coeff-Com:  0.204D+01
 Coeff-En:   0.000D+00 0.000D+00 0.000D+00 0.000D+00 0.000D+00 0.000D+00
 Coeff-En:   0.100D+01
 Coeff:      0.288D-02 0.114D-02-0.290D-01-0.646D-01 0.487D+00-0.143D+01
 Coeff:      0.203D+01
 Gap=     0.210 Goal=   None    Shift=    0.000
 RMSDP=1.74D-03 MaxDP=1.09D-02 DE=-2.00D-03 OVMax= 3.72D-02

 Cycle   8  Pass 1  IDiag  3:
 E= -2.94333133334351     Delta-E=       -0.001074326215 Rises=F Damp=F
 DIIS: error= 6.29D-04 at cycle   8 NSaved=   8.
 NSaved= 8 IEnMin= 8 EnMin= -2.94333133334351     IErMin= 8 ErrMin= 6.29D-04
 ErrMax= 6.29D-04  0.00D+00 EMaxC= 1.00D-01 BMatC= 1.81D-05 BMatP= 4.85D-05
 IDIUse=3 WtCom= 9.94D-01 WtEn= 6.29D-03
 Coeff-Com: -0.194D-02 0.369D-03 0.183D-01 0.254D-01-0.250D+00 0.892D+00
 Coeff-Com: -0.182D+01 0.214D+01
 Coeff-En:   0.000D+00 0.000D+00 0.000D+00 0.000D+00 0.000D+00 0.000D+00
 Coeff-En:   0.000D+00 0.100D+01
 Coeff:     -0.192D-02 0.366D-03 0.182D-01 0.253D-01-0.248D+00 0.887D+00
 Coeff:     -0.181D+01 0.213D+01
 Gap=     0.211 Goal=   None    Shift=    0.000
 RMSDP=1.29D-03 MaxDP=1.05D-02 DE=-1.07D-03 OVMax= 3.02D-02

 Cycle   9  Pass 1  IDiag  3:
 E= -2.94383551737707     Delta-E=       -0.000504184034 Rises=F Damp=F
 DIIS: error= 4.70D-04 at cycle   9 NSaved=   9.
 NSaved= 9 IEnMin= 9 EnMin= -2.94383551737707     IErMin= 9 ErrMin= 4.70D-04
 ErrMax= 4.70D-04  0.00D+00 EMaxC= 1.00D-01 BMatC= 8.21D-06 BMatP= 1.81D-05
 IDIUse=3 WtCom= 9.95D-01 WtEn= 4.70D-03
 Coeff-Com:  0.635D-03-0.131D-02-0.356D-03 0.234D-01-0.970D-01 0.227D-01
 Coeff-Com:  0.452D+00-0.147D+01 0.207D+01
 Coeff-En:   0.000D+00 0.000D+00 0.000D+00 0.000D+00 0.000D+00 0.000D+00
 Coeff-En:   0.000D+00 0.000D+00 0.100D+01
 Coeff:      0.633D-03-0.130D-02-0.354D-03 0.233D-01-0.966D-01 0.226D-01
 Coeff:      0.450D+00-0.147D+01 0.207D+01
 Gap=     0.213 Goal=   None    Shift=    0.000
 RMSDP=1.01D-03 MaxDP=9.42D-03 DE=-5.04D-04 OVMax= 2.45D-02

 Cycle  10  Pass 1  IDiag  3:
 E= -2.94408743566669     Delta-E=       -0.000251918290 Rises=F Damp=F
 DIIS: error= 3.32D-04 at cycle  10 NSaved=  10.
 NSaved=10 IEnMin=10 EnMin= -2.94408743566669     IErMin=10 ErrMin= 3.32D-04
 ErrMax= 3.32D-04  0.00D+00 EMaxC= 1.00D-01 BMatC= 3.75D-06 BMatP= 8.21D-06
 IDIUse=3 WtCom= 9.97D-01 WtEn= 3.32D-03
 Coeff-Com:  0.183D-03-0.102D-03-0.680D-02-0.265D-02 0.106D+00-0.252D+00
 Coeff-Com:  0.208D+00 0.253D+00-0.135D+01 0.204D+01
 Coeff-En:   0.000D+00 0.000D+00 0.000D+00 0.000D+00 0.000D+00 0.000D+00
 Coeff-En:   0.000D+00 0.000D+00 0.000D+00 0.100D+01
 Coeff:      0.183D-03-0.101D-03-0.678D-02-0.264D-02 0.105D+00-0.251D+00
 Coeff:      0.208D+00 0.253D+00-0.135D+01 0.204D+01
 Gap=     0.215 Goal=   None    Shift=    0.000
 RMSDP=7.44D-04 MaxDP=7.84D-03 DE=-2.52D-04 OVMax= 1.68D-02

 Cycle  11  Pass 1  IDiag  3:
 E= -2.94420170850901     Delta-E=       -0.000114272842 Rises=F Damp=F
 DIIS: error= 2.06D-04 at cycle  11 NSaved=  11.
 NSaved=11 IEnMin=11 EnMin= -2.94420170850901     IErMin=11 ErrMin= 2.06D-04
 ErrMax= 2.06D-04  0.00D+00 EMaxC= 1.00D-01 BMatC= 1.48D-06 BMatP= 3.75D-06
 IDIUse=3 WtCom= 9.98D-01 WtEn= 2.06D-03
 Coeff-Com:  0.500D-03 0.435D-03-0.604D-03 0.371D-03-0.181D-01 0.625D-01
 Coeff-Com: -0.100D+00 0.914D-01 0.222D+00-0.122D+01 0.196D+01
 Coeff-En:   0.000D+00 0.000D+00 0.000D+00 0.000D+00 0.000D+00 0.000D+00
 Coeff-En:   0.000D+00 0.000D+00 0.000D+00 0.000D+00 0.100D+01
 Coeff:      0.499D-03 0.434D-03-0.603D-03 0.371D-03-0.181D-01 0.624D-01
 Coeff:     -0.100D+00 0.912D-01 0.222D+00-0.122D+01 0.196D+01
 Gap=     0.215 Goal=   None    Shift=    0.000
 RMSDP=4.68D-04 MaxDP=5.34D-03 DE=-1.14D-04 OVMax= 9.45D-03

 Cycle  12  Pass 1  IDiag  3:
 E= -2.94424399881052     Delta-E=       -0.000042290302 Rises=F Damp=F
 DIIS: error= 1.14D-04 at cycle  12 NSaved=  12.
 NSaved=12 IEnMin=12 EnMin= -2.94424399881052     IErMin=12 ErrMin= 1.14D-04
 ErrMax= 1.14D-04  0.00D+00 EMaxC= 1.00D-01 BMatC= 5.48D-07 BMatP= 1.48D-06
 IDIUse=3 WtCom= 9.99D-01 WtEn= 1.14D-03
 Coeff-Com: -0.209D-03 0.169D-03 0.252D-03-0.196D-02-0.240D-03-0.354D-02
 Coeff-Com:  0.377D-01-0.717D-01 0.271D-01 0.251D+00-0.113D+01 0.189D+01
 Coeff-En:   0.000D+00 0.000D+00 0.000D+00 0.000D+00 0.000D+00 0.000D+00
 Coeff-En:   0.000D+00 0.000D+00 0.000D+00 0.000D+00 0.000D+00 0.100D+01
 Coeff:     -0.209D-03 0.169D-03 0.251D-03-0.196D-02-0.240D-03-0.354D-02
 Coeff:      0.376D-01-0.716D-01 0.270D-01 0.250D+00-0.113D+01 0.189D+01
 Gap=     0.215 Goal=   None    Shift=    0.000
 RMSDP=2.70D-04 MaxDP=3.15D-03 DE=-4.23D-05 OVMax= 4.91D-03

 Cycle  13  Pass 1  IDiag  3:
 E= -2.94425769182851     Delta-E=       -0.000013693018 Rises=F Damp=F
 DIIS: error= 5.59D-05 at cycle  13 NSaved=  13.
 NSaved=13 IEnMin=13 EnMin= -2.94425769182851     IErMin=13 ErrMin= 5.59D-05
 ErrMax= 5.59D-05  0.00D+00 EMaxC= 1.00D-01 BMatC= 1.64D-07 BMatP= 5.48D-07
 IDIUse=1 WtCom= 1.00D+00 WtEn= 0.00D+00
 Coeff-Com: -0.135D-04 0.757D-05 0.694D-03-0.738D-03-0.764D-03 0.130D-01
 Coeff-Com: -0.443D-01 0.767D-01-0.680D-01 0.378D-01 0.141D+00-0.942D+00
 Coeff-Com:  0.179D+01
 Coeff:     -0.135D-04 0.757D-05 0.694D-03-0.738D-03-0.764D-03 0.130D-01
 Coeff:     -0.443D-01 0.767D-01-0.680D-01 0.378D-01 0.141D+00-0.942D+00
 Coeff:      0.179D+01
 Gap=     0.215 Goal=   None    Shift=    0.000
 RMSDP=1.34D-04 MaxDP=1.54D-03 DE=-1.37D-05 OVMax= 2.53D-03

 Cycle  14  Pass 1  IDiag  3:
 E= -2.94426125052053     Delta-E=       -0.000003558692 Rises=F Damp=F
 DIIS: error= 2.33D-05 at cycle  14 NSaved=  14.
 NSaved=14 IEnMin=14 EnMin= -2.94426125052053     IErMin=14 ErrMin= 2.33D-05
 ErrMax= 2.33D-05  0.00D+00 EMaxC= 1.00D-01 BMatC= 3.89D-08 BMatP= 1.64D-07
 IDIUse=1 WtCom= 1.00D+00 WtEn= 0.00D+00
 Coeff-Com:  0.658D-05-0.527D-04 0.252D-04-0.279D-03 0.777D-03-0.297D-02
 Coeff-Com:  0.995D-02-0.223D-01 0.170D-01-0.995D-02 0.325D-01 0.113D+00
 Coeff-Com: -0.839D+00 0.170D+01
 Coeff:      0.658D-05-0.527D-04 0.252D-04-0.279D-03 0.777D-03-0.297D-02
 Coeff:      0.995D-02-0.223D-01 0.170D-01-0.995D-02 0.325D-01 0.113D+00
 Coeff:     -0.839D+00 0.170D+01
 Gap=     0.215 Goal=   None    Shift=    0.000
 RMSDP=5.83D-05 MaxDP=6.28D-04 DE=-3.56D-06 OVMax= 1.09D-03

 Cycle  15  Pass 1  IDiag  3:
 E= -2.94426198190945     Delta-E=       -0.000000731389 Rises=F Damp=F
 DIIS: error= 1.09D-05 at cycle  15 NSaved=  15.
 NSaved=15 IEnMin=15 EnMin= -2.94426198190945     IErMin=15 ErrMin= 1.09D-05
 ErrMax= 1.09D-05  0.00D+00 EMaxC= 1.00D-01 BMatC= 8.67D-09 BMatP= 3.89D-08
 IDIUse=1 WtCom= 1.00D+00 WtEn= 0.00D+00
 Coeff-Com: -0.630D-05-0.346D-04 0.845D-04 0.125D-03-0.484D-03 0.301D-02
 Coeff-Com: -0.954D-02 0.167D-01-0.963D-02 0.296D-02-0.218D-01 0.125D-02
 Coeff-Com:  0.214D+00-0.860D+00 0.166D+01
 Coeff:     -0.630D-05-0.346D-04 0.845D-04 0.125D-03-0.484D-03 0.301D-02
 Coeff:     -0.954D-02 0.167D-01-0.963D-02 0.296D-02-0.218D-01 0.125D-02
 Coeff:      0.214D+00-0.860D+00 0.166D+01
 Gap=     0.215 Goal=   None    Shift=    0.000
 RMSDP=2.17D-05 MaxDP=2.07D-04 DE=-7.31D-07 OVMax= 3.26D-04

 Cycle  16  Pass 1  IDiag  3:
 E= -2.94426212216069     Delta-E=       -0.000000140251 Rises=F Damp=F
 DIIS: error= 5.15D-06 at cycle  16 NSaved=  16.
 NSaved=16 IEnMin=16 EnMin= -2.94426212216069     IErMin=16 ErrMin= 5.15D-06
 ErrMax= 5.15D-06  0.00D+00 EMaxC= 1.00D-01 BMatC= 2.05D-09 BMatP= 8.67D-09
 IDIUse=1 WtCom= 1.00D+00 WtEn= 0.00D+00
 Coeff-Com: -0.131D-04 0.936D-06 0.537D-04-0.724D-04-0.561D-04-0.840D-03
 Coeff-Com:  0.422D-02-0.108D-01 0.134D-01-0.119D-01 0.164D-01-0.146D-01
 Coeff-Com: -0.223D-01 0.218D+00-0.926D+00 0.173D+01
 Coeff:     -0.131D-04 0.936D-06 0.537D-04-0.724D-04-0.561D-04-0.840D-03
 Coeff:      0.422D-02-0.108D-01 0.134D-01-0.119D-01 0.164D-01-0.146D-01
 Coeff:     -0.223D-01 0.218D+00-0.926D+00 0.173D+01
 Gap=     0.216 Goal=   None    Shift=    0.000
 RMSDP=1.02D-05 MaxDP=1.04D-04 DE=-1.40D-07 OVMax= 1.41D-04

 Cycle  17  Pass 1  IDiag  3:
 E= -2.94426215821028     Delta-E=       -0.000000036050 Rises=F Damp=F
 DIIS: error= 2.33D-06 at cycle  17 NSaved=  17.
 NSaved=17 IEnMin=17 EnMin= -2.94426215821028     IErMin=17 ErrMin= 2.33D-06
 ErrMax= 2.33D-06  0.00D+00 EMaxC= 1.00D-01 BMatC= 4.73D-10 BMatP= 2.05D-09
 IDIUse=1 WtCom= 1.00D+00 WtEn= 0.00D+00
 Coeff-Com:  0.666D-05-0.468D-05 0.431D-04 0.595D-04-0.654D-03 0.304D-02
 Coeff-Com: -0.690D-02 0.106D-01-0.990D-02 0.750D-02-0.108D-01 0.109D-01
 Coeff-Com: -0.926D-02-0.313D-01 0.299D+00-0.112D+01 0.186D+01
 Coeff:      0.666D-05-0.468D-05 0.431D-04 0.595D-04-0.654D-03 0.304D-02
 Coeff:     -0.690D-02 0.106D-01-0.990D-02 0.750D-02-0.108D-01 0.109D-01
 Coeff:     -0.926D-02-0.313D-01 0.299D+00-0.112D+01 0.186D+01
 Gap=     0.216 Goal=   None    Shift=    0.000
 RMSDP=6.11D-06 MaxDP=6.12D-05 DE=-3.60D-08 OVMax= 1.01D-04

 Cycle  18  Pass 1  IDiag  3:
 E= -2.94426216831084     Delta-E=       -0.000000010101 Rises=F Damp=F
 DIIS: error= 1.14D-06 at cycle  18 NSaved=  18.
 NSaved=18 IEnMin=18 EnMin= -2.94426216831084     IErMin=18 ErrMin= 1.14D-06
 ErrMax= 1.14D-06  0.00D+00 EMaxC= 1.00D-01 BMatC= 9.33D-11 BMatP= 4.73D-10
 IDIUse=1 WtCom= 1.00D+00 WtEn= 0.00D+00
 Coeff-Com: -0.463D-05-0.319D-05 0.175D-05-0.158D-04 0.125D-03-0.819D-03
 Coeff-Com:  0.208D-02-0.385D-02 0.479D-02-0.463D-02 0.602D-02-0.103D-01
 Coeff-Com:  0.205D-01-0.449D-01 0.576D-01 0.136D+00-0.836D+00 0.167D+01
 Coeff:     -0.463D-05-0.319D-05 0.175D-05-0.158D-04 0.125D-03-0.819D-03
 Coeff:      0.208D-02-0.385D-02 0.479D-02-0.463D-02 0.602D-02-0.103D-01
 Coeff:      0.205D-01-0.449D-01 0.576D-01 0.136D+00-0.836D+00 0.167D+01
 Gap=     0.216 Goal=   None    Shift=    0.000
 RMSDP=2.90D-06 MaxDP=2.35D-05 DE=-1.01D-08 OVMax= 4.77D-05

 Cycle  19  Pass 1  IDiag  3:
 E= -2.94426217025580     Delta-E=       -0.000000001945 Rises=F Damp=F
 DIIS: error= 5.64D-07 at cycle  19 NSaved=  19.
 NSaved=19 IEnMin=19 EnMin= -2.94426217025580     IErMin=19 ErrMin= 5.64D-07
 ErrMax= 5.64D-07  0.00D+00 EMaxC= 1.00D-01 BMatC= 2.09D-11 BMatP= 9.33D-11
 IDIUse=1 WtCom= 1.00D+00 WtEn= 0.00D+00
 Coeff-Com:  0.248D-05-0.524D-06-0.251D-05 0.480D-05 0.539D-04 0.288D-04
 Coeff-Com: -0.475D-03 0.121D-02-0.172D-02 0.195D-02-0.286D-02 0.515D-02
 Coeff-Com: -0.122D-01 0.338D-01-0.855D-01 0.969D-01 0.155D+00-0.914D+00
 Coeff-Com:  0.172D+01
 Coeff:      0.248D-05-0.524D-06-0.251D-05 0.480D-05 0.539D-04 0.288D-04
 Coeff:     -0.475D-03 0.121D-02-0.172D-02 0.195D-02-0.286D-02 0.515D-02
 Coeff:     -0.122D-01 0.338D-01-0.855D-01 0.969D-01 0.155D+00-0.914D+00
 Coeff:      0.172D+01
 Gap=     0.216 Goal=   None    Shift=    0.000
 RMSDP=1.22D-06 MaxDP=1.01D-05 DE=-1.94D-09 OVMax= 2.00D-05

 Cycle  20  Pass 1  IDiag  3:
 E= -2.94426217061948     Delta-E=       -0.000000000364 Rises=F Damp=F
 DIIS: error= 3.05D-07 at cycle  20 NSaved=  20.
 NSaved=20 IEnMin=20 EnMin= -2.94426217061948     IErMin=20 ErrMin= 3.05D-07
 ErrMax= 3.05D-07  0.00D+00 EMaxC= 1.00D-01 BMatC= 4.83D-12 BMatP= 2.09D-11
 IDIUse=1 WtCom= 1.00D+00 WtEn= 0.00D+00
 Coeff-Com: -0.159D-05-0.356D-06 0.321D-05-0.695D-05-0.547D-04 0.128D-03
 Coeff-Com:  0.179D-04-0.397D-03 0.639D-03-0.692D-03 0.131D-02-0.320D-02
 Coeff-Com:  0.771D-02-0.212D-01 0.595D-01-0.985D-01 0.125D-01 0.403D+00
 Coeff-Com: -0.128D+01 0.192D+01
 Coeff:     -0.159D-05-0.356D-06 0.321D-05-0.695D-05-0.547D-04 0.128D-03
 Coeff:      0.179D-04-0.397D-03 0.639D-03-0.692D-03 0.131D-02-0.320D-02
 Coeff:      0.771D-02-0.212D-01 0.595D-01-0.985D-01 0.125D-01 0.403D+00
 Coeff:     -0.128D+01 0.192D+01
 Gap=     0.216 Goal=   None    Shift=    0.000
 RMSDP=5.38D-07 MaxDP=5.27D-06 DE=-3.64D-10 OVMax= 8.84D-06

 Cycle  21  Pass 1  IDiag  3:
 E= -2.94426217070969     Delta-E=       -0.000000000090 Rises=F Damp=F
 DIIS: error= 1.69D-07 at cycle  21 NSaved=  20.
 NSaved=20 IEnMin=20 EnMin= -2.94426217070969     IErMin=20 ErrMin= 1.69D-07
 ErrMax= 1.69D-07  0.00D+00 EMaxC= 1.00D-01 BMatC= 1.38D-12 BMatP= 4.83D-12
 IDIUse=1 WtCom= 1.00D+00 WtEn= 0.00D+00
 Coeff-Com:  0.676D-06-0.469D-07-0.566D-05 0.672D-04-0.195D-03 0.229D-03
 Coeff-Com: -0.689D-04-0.131D-03 0.310D-03-0.655D-03 0.154D-02-0.369D-02
 Coeff-Com:  0.109D-01-0.322D-01 0.650D-01-0.633D-01-0.100D+00 0.656D+00
 Coeff-Com: -0.165D+01 0.212D+01
 Coeff:      0.676D-06-0.469D-07-0.566D-05 0.672D-04-0.195D-03 0.229D-03
 Coeff:     -0.689D-04-0.131D-03 0.310D-03-0.655D-03 0.154D-02-0.369D-02
 Coeff:      0.109D-01-0.322D-01 0.650D-01-0.633D-01-0.100D+00 0.656D+00
 Coeff:     -0.165D+01 0.212D+01
 Gap=     0.216 Goal=   None    Shift=    0.000
 RMSDP=3.28D-07 MaxDP=3.10D-06 DE=-9.02D-11 OVMax= 5.83D-06

 Cycle  22  Pass 1  IDiag  3:
 E= -2.94426217074147     Delta-E=       -0.000000000032 Rises=F Damp=F
 DIIS: error= 8.01D-08 at cycle  22 NSaved=  20.
 NSaved=20 IEnMin=20 EnMin= -2.94426217074147     IErMin=20 ErrMin= 8.01D-08
 ErrMax= 8.01D-08  0.00D+00 EMaxC= 1.00D-01 BMatC= 3.68D-13 BMatP= 1.38D-12
 IDIUse=1 WtCom= 1.00D+00 WtEn= 0.00D+00
 Coeff-Com: -0.726D-07 0.237D-05-0.335D-04 0.107D-03-0.139D-03 0.915D-04
 Coeff-Com: -0.872D-04 0.788D-04 0.116D-03-0.493D-03 0.106D-02-0.309D-02
 Coeff-Com:  0.975D-02-0.188D-01 0.266D-01-0.680D-02-0.158D+00 0.607D+00
 Coeff-Com: -0.138D+01 0.192D+01
 Coeff:     -0.726D-07 0.237D-05-0.335D-04 0.107D-03-0.139D-03 0.915D-04
 Coeff:     -0.872D-04 0.788D-04 0.116D-03-0.493D-03 0.106D-02-0.309D-02
 Coeff:      0.975D-02-0.188D-01 0.266D-01-0.680D-02-0.158D+00 0.607D+00
 Coeff:     -0.138D+01 0.192D+01
 Gap=     0.216 Goal=   None    Shift=    0.000
 RMSDP=1.74D-07 MaxDP=1.51D-06 DE=-3.18D-11 OVMax= 3.08D-06

 Cycle  23  Pass 1  IDiag  3:
 E= -2.94426217074897     Delta-E=       -0.000000000008 Rises=F Damp=F
 DIIS: error= 3.46D-08 at cycle  23 NSaved=  20.
 NSaved=20 IEnMin=20 EnMin= -2.94426217074897     IErMin=20 ErrMin= 3.46D-08
 ErrMax= 3.46D-08  0.00D+00 EMaxC= 1.00D-01 BMatC= 7.05D-14 BMatP= 3.68D-13
 IDIUse=1 WtCom= 1.00D+00 WtEn= 0.00D+00
 Coeff-Com: -0.713D-06 0.158D-04-0.555D-04 0.769D-04-0.568D-04 0.632D-04
 Coeff-Com: -0.801D-04-0.157D-04 0.216D-03-0.484D-03 0.163D-02-0.554D-02
 Coeff-Com:  0.102D-01-0.144D-01 0.792D-02 0.522D-01-0.261D+00 0.676D+00
 Coeff-Com: -0.137D+01 0.190D+01
 Coeff:     -0.713D-06 0.158D-04-0.555D-04 0.769D-04-0.568D-04 0.632D-04
 Coeff:     -0.801D-04-0.157D-04 0.216D-03-0.484D-03 0.163D-02-0.554D-02
 Coeff:      0.102D-01-0.144D-01 0.792D-02 0.522D-01-0.261D+00 0.676D+00
 Coeff:     -0.137D+01 0.190D+01
 Gap=     0.216 Goal=   None    Shift=    0.000
 RMSDP=7.77D-08 MaxDP=7.44D-07 DE=-7.50D-12 OVMax= 1.54D-06

 Cycle  24  Pass 1  IDiag  3:
 E= -2.94426217075056     Delta-E=       -0.000000000002 Rises=F Damp=F
 DIIS: error= 1.28D-08 at cycle  24 NSaved=  20.
 NSaved=20 IEnMin=20 EnMin= -2.94426217075056     IErMin=20 ErrMin= 1.28D-08
 ErrMax= 1.28D-08  0.00D+00 EMaxC= 1.00D-01 BMatC= 1.39D-14 BMatP= 7.05D-14
 IDIUse=1 WtCom= 1.00D+00 WtEn= 0.00D+00
 Large coefficients: NSaved= 20 BigCof=    0.00 CofMax=   10.00 Det=-2.39D-15
 Inversion failed.  Reducing to 19 matrices.
 Large coefficients: NSaved= 19 BigCof=    0.00 CofMax=   10.00 Det=-3.51D-15
 Inversion failed.  Reducing to 18 matrices.
 Large coefficients: NSaved= 18 BigCof=    0.00 CofMax=   10.00 Det=-4.03D-15
 Inversion failed.  Reducing to 17 matrices.
 Large coefficients: NSaved= 17 BigCof=    0.00 CofMax=   10.00 Det=-4.16D-15
 Inversion failed.  Reducing to 16 matrices.
 Large coefficients: NSaved= 16 BigCof=    0.00 CofMax=   10.00 Det=-4.18D-15
 Inversion failed.  Reducing to 15 matrices.
 Coeff-Com: -0.436D-06 0.650D-05-0.507D-04 0.831D-04-0.118D-03 0.218D-03
 Coeff-Com:  0.268D-03-0.127D-04-0.484D-02 0.210D-01-0.314D-01-0.342D-01
 Coeff-Com:  0.297D+00-0.992D+00 0.174D+01
 Coeff:     -0.436D-06 0.650D-05-0.507D-04 0.831D-04-0.118D-03 0.218D-03
 Coeff:      0.268D-03-0.127D-04-0.484D-02 0.210D-01-0.314D-01-0.342D-01
 Coeff:      0.297D+00-0.992D+00 0.174D+01
 Gap=     0.216 Goal=   None    Shift=    0.000
 RMSDP=3.37D-08 MaxDP=2.89D-07 DE=-1.59D-12 OVMax= 6.48D-07

 Cycle  25  Pass 1  IDiag  3:
 E= -2.94426217075056     Delta-E=        0.000000000000 Rises=F Damp=F
 DIIS: error= 4.19D-09 at cycle  25 NSaved=  16.
 NSaved=16 IEnMin=15 EnMin= -2.94426217075056     IErMin=16 ErrMin= 4.19D-09
 ErrMax= 4.19D-09  0.00D+00 EMaxC= 1.00D-01 BMatC= 2.17D-15 BMatP= 1.39D-14
 IDIUse=1 WtCom= 1.00D+00 WtEn= 0.00D+00
 Large coefficients: NSaved= 16 BigCof=    0.00 CofMax=   10.00 Det=-6.80D-16
 Inversion failed.  Reducing to 15 matrices.
 Coeff-Com: -0.599D-05 0.171D-04-0.140D-04 0.865D-05-0.413D-04-0.199D-03
 Coeff-Com: -0.182D-03 0.277D-02-0.784D-02 0.960D-02 0.102D-01-0.109D+00
 Coeff-Com:  0.406D+00-0.105D+01 0.174D+01
 Coeff:     -0.599D-05 0.171D-04-0.140D-04 0.865D-05-0.413D-04-0.199D-03
 Coeff:     -0.182D-03 0.277D-02-0.784D-02 0.960D-02 0.102D-01-0.109D+00
 Coeff:      0.406D+00-0.105D+01 0.174D+01
 Gap=     0.216 Goal=   None    Shift=    0.000
 RMSDP=1.26D-08 MaxDP=9.37D-08 DE= 0.00D+00 OVMax= 1.94D-07

 Cycle  26  Pass 1  IDiag  3:
 E= -2.94426217075056     Delta-E=        0.000000000000 Rises=F Damp=F
 DIIS: error= 1.74D-09 at cycle  26 NSaved=  16.
 NSaved=16 IEnMin=14 EnMin= -2.94426217075056     IErMin=16 ErrMin= 1.74D-09
 ErrMax= 1.74D-09  0.00D+00 EMaxC= 1.00D-01 BMatC= 2.52D-16 BMatP= 2.17D-15
 IDIUse=1 WtCom= 1.00D+00 WtEn= 0.00D+00
 Large coefficients: NSaved= 16 BigCof=    0.00 CofMax=   10.00 Det=-1.05D-16
 Inversion failed.  Reducing to 15 matrices.
 Coeff-Com: -0.790D-05 0.227D-04-0.532D-04 0.135D-03-0.126D-03 0.360D-04
 Coeff-Com: -0.152D-03 0.106D-02-0.221D-02 0.162D-03 0.203D-01-0.112D+00
 Coeff-Com:  0.370D+00-0.904D+00 0.163D+01
 Coeff:     -0.790D-05 0.227D-04-0.532D-04 0.135D-03-0.126D-03 0.360D-04
 Coeff:     -0.152D-03 0.106D-02-0.221D-02 0.162D-03 0.203D-01-0.112D+00
 Coeff:      0.370D+00-0.904D+00 0.163D+01
 Gap=     0.216 Goal=   None    Shift=    0.000
 RMSDP=3.79D-09 MaxDP=3.43D-08 DE= 0.00D+00 OVMax= 5.09D-08

 Cycle  27  Pass 2  IDiag  1:
 SCF Done:  E(RPM6) =  -2.94426217075     A.U. after   27 cycles
            NFock= 26  Conv=0.38D-08     -V/T= 0.9738
 KE=-1.123020378844D+02 PE=-4.315701382554D+02 EE= 2.488432237263D+02
 Leave Link  502 at Fri Jan  7 12:01:50 2022, MaxMem=   402653184 cpu:             166.5 elap:              26.1
 (Enter /work/01114/jfonner/frontera/gaussian/16rC.01/g16/l601.exe)
 Copying SCF densities to generalized density rwf, IOpCl= 0 IROHF=0.

 **********************************************************************

            Population analysis using the SCF Density.

 **********************************************************************

 Alpha  occ. eigenvalues --   -1.41991  -1.38820  -1.33880  -1.29931  -1.28524
 Alpha  occ. eigenvalues --   -1.21363  -1.14504  -1.08350  -0.95500  -0.92624
 Alpha  occ. eigenvalues --   -0.83483  -0.81005  -0.79137  -0.78350  -0.76831
 Alpha  occ. eigenvalues --   -0.75576  -0.72048  -0.70428  -0.69711  -0.65791
 Alpha  occ. eigenvalues --   -0.64383  -0.62297  -0.58911  -0.56550  -0.55411
 Alpha  occ. eigenvalues --   -0.53889
 Alpha virt. eigenvalues --   -0.33356  -0.27657  -0.23928  -0.23176  -0.16813
 Alpha virt. eigenvalues --   -0.14608  -0.14248  -0.12319  -0.11643  -0.10305
 Alpha virt. eigenvalues --   -0.07201  -0.03138  -0.02869  -0.00114   0.00030
 Alpha virt. eigenvalues --    0.00778   0.02721   0.06102
          Condensed to atoms (all electrons):
               1          2          3          4          5          6
     1  C    3.474632   0.000000   0.000000   0.000000   0.000000   0.000000
     2  O    0.000000   6.348000   0.000000   0.000000   0.000000   0.000000
     3  N    0.000000   0.000000   5.392676   0.000000   0.000000   0.000000
     4  C    0.000000   0.000000   0.000000   3.721898   0.000000   0.000000
     5  C    0.000000   0.000000   0.000000   0.000000   3.515582   0.000000
     6  O    0.000000   0.000000   0.000000   0.000000   0.000000   6.406403
     7  N    0.000000   0.000000   0.000000   0.000000   0.000000   0.000000
     8  C    0.000000   0.000000   0.000000   0.000000   0.000000   0.000000
     9  C    0.000000   0.000000   0.000000   0.000000   0.000000   0.000000
    10  O    0.000000   0.000000   0.000000   0.000000   0.000000   0.000000
    11  H    0.000000   0.000000   0.000000   0.000000   0.000000   0.000000
    12  H    0.000000   0.000000   0.000000   0.000000   0.000000   0.000000
    13  H    0.000000   0.000000   0.000000   0.000000   0.000000   0.000000
    14  H    0.000000   0.000000   0.000000   0.000000   0.000000   0.000000
               7          8          9         10         11         12
     1  C    0.000000   0.000000   0.000000   0.000000   0.000000   0.000000
     2  O    0.000000   0.000000   0.000000   0.000000   0.000000   0.000000
     3  N    0.000000   0.000000   0.000000   0.000000   0.000000   0.000000
     4  C    0.000000   0.000000   0.000000   0.000000   0.000000   0.000000
     5  C    0.000000   0.000000   0.000000   0.000000   0.000000   0.000000
     6  O    0.000000   0.000000   0.000000   0.000000   0.000000   0.000000
     7  N    5.476248   0.000000   0.000000   0.000000   0.000000   0.000000
     8  C    0.000000   3.735590   0.000000   0.000000   0.000000   0.000000
     9  C    0.000000   0.000000   3.588639   0.000000   0.000000   0.000000
    10  O    0.000000   0.000000   0.000000   6.132511   0.000000   0.000000
    11  H    0.000000   0.000000   0.000000   0.000000   0.921045   0.000000
    12  H    0.000000   0.000000   0.000000   0.000000   0.000000   1.746669
    13  H    0.000000   0.000000   0.000000   0.000000   0.000000   0.000000
    14  H    0.000000   0.000000   0.000000   0.000000   0.000000   0.000000
              13         14
     1  C    0.000000   0.000000
     2  O    0.000000   0.000000
     3  N    0.000000   0.000000
     4  C    0.000000   0.000000
     5  C    0.000000   0.000000
     6  O    0.000000   0.000000
     7  N    0.000000   0.000000
     8  C    0.000000   0.000000
     9  C    0.000000   0.000000
    10  O    0.000000   0.000000
    11  H    0.000000   0.000000
    12  H    0.000000   0.000000
    13  H    0.862503   0.000000
    14  H    0.000000   0.677604
 Mulliken charges:
               1
     1  C    0.525368
     2  O   -0.348000
     3  N   -0.392676
     4  C    0.278102
     5  C    0.484418
     6  O   -0.406403
     7  N   -0.476248
     8  C    0.264410
     9  C    0.411361
    10  O   -0.132511
    11  H    0.078955
    12  H   -0.746669
    13  H    0.137497
    14  H    0.322396
 Sum of Mulliken charges =   0.00000
 Mulliken charges with hydrogens summed into heavy atoms:
               1
     1  C    0.604324
     2  O   -0.348000
     3  N   -0.392676
     4  C    0.278102
     5  C    0.484418
     6  O   -0.406403
     7  N   -0.476248
     8  C    0.724303
     9  C   -0.335307
    10  O   -0.132511
 Charge=              0.0000 electrons
 Dipole moment (field-independent basis, Debye):
    X=             -9.0268    Y=              0.0776    Z=              4.7779  Tot=             10.2136
 N-N= 2.920846902428D+02 E-N=-4.315701382139D+02  KE=-1.123020378844D+02
 Leave Link  601 at Fri Jan  7 12:01:51 2022, MaxMem=   402653184 cpu:               2.4 elap:               0.2
 (Enter /work/01114/jfonner/frontera/gaussian/16rC.01/g16/l9999.exe)

 Test job not archived.
 1\1\GINC-C208-012\SP\RPM6\ZDO\C5H4N2O3\SA748948\07-Jan-2022\0\\#p int=
 acc2e=12 pm6 charge nosymm\\Atom number=14\\0,1\C,0,3.00599759,0.04699
 653,14.36101452\O,0,2.95799299,-1.16900433,14.51500215\N,0,3.48100165,
 0.88700141,15.26198797\C,0,4.16300283,0.39199376,16.44199186\C,0,3.424
 00002,0.96498763,17.63099045\O,0,3.13600342,2.10999946,17.61199391\N,0
 ,3.17300496,0.12899699,18.64699945\C,0,2.55900471,0.51600847,19.903014
 7\C,0,5.6879954,0.75001429,16.38901157\O,0,6.26399949,0.13000576,15.23
 59942\H,0,2.70244423,0.50122771,13.44099855\H,0,6.21369755,0.36219304,
 17.23643822\H,0,3.1211177,0.06260353,20.69254174\H,0,1.55947656,0.1382
 8211,19.95928441\\Version=ES64L-G16RevC.01\HF=-2.9442622\RMSD=3.787e-0
 9\Dipole=-3.5514081,0.0305173,1.8797698\PG=C01 [X(C5H4N2O3)]\\@


 HOW IS IT THAT THE SKY FEEDS THE STARS?

                           -- LUCRETIUS
 Job cpu time:       0 days  0 hours  3 minutes 49.1 seconds.
 Elapsed time:       0 days  0 hours  0 minutes 36.4 seconds.
 File lengths (MBytes):  RWF=      6 Int=      0 D2E=      0 Chk=      2 Scr=      1
 Normal termination of Gaussian 16 at Fri Jan  7 12:01:51 2022.
