Atom number=14                                                          
SP        RPM6                                                        ZDO                 
Number of atoms                            I               14
Info1-9                                    I   N=           9
          81          80           0           0           0         111
           1           8        2302
Full Title                                 C   N=           2
Atom number=14          
Route                                      C   N=           3
#p int=acc2e=12 pm6 charge nosymm   
Charge                                     I                2
Multiplicity                               I                1
Number of electrons                        I               48
Number of alpha electrons                  I               24
Number of beta electrons                   I               24
Number of basis functions                  I               44
Number of independent functions            I               44
Number of point charges in /Mol/           I                0
Number of translation vectors              I                0
Atomic numbers                             I   N=          14
           6           8           7           6           6           8
           7           6           6           6           1           1
           1           1
Nuclear charges                            R   N=          14
  4.00000000E+00  6.00000000E+00  5.00000000E+00  4.00000000E+00  4.00000000E+00
  6.00000000E+00  5.00000000E+00  4.00000000E+00  4.00000000E+00  4.00000000E+00
  1.00000000E+00  1.00000000E+00  1.00000000E+00  1.00000000E+00
Current cartesian coordinates              R   N=          42
 -8.23352197E+00 -1.27178323E+00  4.89059840E+00 -7.95951145E+00 -3.53377771E+00
  4.70917921E+00 -6.38916554E+00  2.36197738E-01  5.58035747E+00 -3.89662390E+00
 -7.37002581E-01  6.18696184E+00 -3.09160432E+00  3.30694740E-01  8.69275385E+00
 -3.29569780E+00  2.56246921E+00  9.18783135E+00 -2.06925099E+00 -1.32281734E+00
  1.02328755E+01 -1.08091452E+00 -5.87715313E-01  1.26025806E+01 -1.87649655E+00
 -8.50409070E-02  4.15173145E+00  7.36992735E-01 -9.22167697E-01  4.98888638E+00
 -1.00259758E+01 -3.80173666E-01  4.60660208E+00 -2.39910842E+00 -9.22555752E-01
  2.38709046E+00  8.00144207E-01 -1.31109541E+00  1.27664447E+01 -2.19023651E+00
 -1.38365161E+00  1.40940236E+01
Number of symbols in /Mol/                 I                0
Int Atom Types                             I   N=          14
           0           0           0           0           0           0
           0           0           0           0           0           0
           0           0
Force Field                                I                0
Atom Types                                 C   N=          14
                                                            
                                                            
                                                
MM charges                                 R   N=          14
  0.00000000E+00  0.00000000E+00  0.00000000E+00  0.00000000E+00  0.00000000E+00
  0.00000000E+00  0.00000000E+00  0.00000000E+00  0.00000000E+00  0.00000000E+00
  0.00000000E+00  0.00000000E+00  0.00000000E+00  0.00000000E+00
Integer atomic weights                     I   N=          14
          12          16          14          12          12          16
          14          12          12          12           1           1
           1           1
Real atomic weights                        R   N=          14
  1.20000000E+01  1.59949146E+01  1.40030740E+01  1.20000000E+01  1.20000000E+01
  1.59949146E+01  1.40030740E+01  1.20000000E+01  1.20000000E+01  1.20000000E+01
  1.00782504E+00  1.00782504E+00  1.00782504E+00  1.00782504E+00
Atom fragment info                         I   N=          14
           0           0           0           0           0           0
           0           0           0           0           0           0
           0           0
Atom residue num                           I   N=          14
           0           0           0           0           0           0
           0           0           0           0           0           0
           0           0
Nuclear spins                              I   N=          14
           0           0           2           0           0           0
           2           0           0           0           1           1
           1           1
Nuclear ZEff                               R   N=          14
 -3.90000000E+00 -6.00000000E+00 -4.90000000E+00 -3.90000000E+00 -3.90000000E+00
 -6.00000000E+00 -4.90000000E+00 -3.90000000E+00 -3.90000000E+00 -3.90000000E+00
 -1.00000000E+00 -1.00000000E+00 -1.00000000E+00 -1.00000000E+00
Nuclear ZNuc                               R   N=          14
  6.00000000E+00  8.00000000E+00  7.00000000E+00  6.00000000E+00  6.00000000E+00
  8.00000000E+00  7.00000000E+00  6.00000000E+00  6.00000000E+00  6.00000000E+00
  1.00000000E+00  1.00000000E+00  1.00000000E+00  1.00000000E+00
Nuclear QMom                               R   N=          14
  0.00000000E+00  0.00000000E+00  2.04400000E+00  0.00000000E+00  0.00000000E+00
  0.00000000E+00  2.04400000E+00  0.00000000E+00  0.00000000E+00  0.00000000E+00
  0.00000000E+00  0.00000000E+00  0.00000000E+00  0.00000000E+00
Nuclear GFac                               R   N=          14
  0.00000000E+00  0.00000000E+00  4.03761000E-01  0.00000000E+00  0.00000000E+00
  0.00000000E+00  4.03761000E-01  0.00000000E+00  0.00000000E+00  0.00000000E+00
  2.79284600E+00  2.79284600E+00  2.79284600E+00  2.79284600E+00
MicOpt                                     I   N=          14
          -1          -1          -1          -1          -1          -1
          -1          -1          -1          -1          -1          -1
          -1          -1
Number of residues                         I                0
Number of secondary structures             I                0
Number of contracted shells                I               14
Number of primitive shells                 I               84
Pure/Cartesian d shells                    I                0
Pure/Cartesian f shells                    I                0
Highest angular momentum                   I                1
Largest degree of contraction              I                6
Shell types                                I   N=          14
          -1          -1          -1          -1          -1          -1
          -1          -1          -1          -1           0           0
           0           0
Number of primitives per shell             I   N=          14
           6           6           6           6           6           6
           6           6           6           6           6           6
           6           6
Shell to atom map                          I   N=          14
           1           2           3           4           5           6
           7           8           9          10          11          12
          13          14
Primitive exponents                        R   N=          84
  1.14476344E+01  3.29633588E+00  1.29653143E+00  5.92558930E-01  2.94896438E-01
  1.51447622E-01  8.02643074E+01  2.31120341E+01  9.09054165E+00  4.15468650E+00
  2.06764625E+00  1.06186467E+00  1.54719623E+01  4.45513742E+00  1.75231709E+00
  8.00868468E-01  3.98565014E-01  2.04687870E-01  1.14476344E+01  3.29633588E+00
  1.29653143E+00  5.92558930E-01  2.94896438E-01  1.51447622E-01  1.14476344E+01
  3.29633588E+00  1.29653143E+00  5.92558930E-01  2.94896438E-01  1.51447622E-01
  8.02643074E+01  2.31120341E+01  9.09054165E+00  4.15468650E+00  2.06764625E+00
  1.06186467E+00  1.54719623E+01  4.45513742E+00  1.75231709E+00  8.00868468E-01
  3.98565014E-01  2.04687870E-01  1.14476344E+01  3.29633588E+00  1.29653143E+00
  5.92558930E-01  2.94896438E-01  1.51447622E-01  1.14476344E+01  3.29633588E+00
  1.29653143E+00  5.92558930E-01  2.94896438E-01  1.51447622E-01  1.14476344E+01
  3.29633588E+00  1.29653143E+00  5.92558930E-01  2.94896438E-01  1.51447622E-01
  4.39461478E+00  1.26542531E+00  4.97723458E-01  2.27476537E-01  1.13207340E-01
  5.81389949E-02  4.39461478E+00  1.26542531E+00  4.97723458E-01  2.27476537E-01
  1.13207340E-01  5.81389949E-02  4.39461478E+00  1.26542531E+00  4.97723458E-01
  2.27476537E-01  1.13207340E-01  5.81389949E-02  4.39461478E+00  1.26542531E+00
  4.97723458E-01  2.27476537E-01  1.13207340E-01  5.81389949E-02
Contraction coefficients                   R   N=          84
 -9.73739553E-03 -7.26587678E-02 -1.71615520E-01  1.28977624E-01  7.28861451E-01
  3.01331742E-01 -9.73739553E-03 -7.26587678E-02 -1.71615520E-01  1.28977624E-01
  7.28861451E-01  3.01331742E-01 -9.73739553E-03 -7.26587678E-02 -1.71615520E-01
  1.28977624E-01  7.28861451E-01  3.01331742E-01 -9.73739553E-03 -7.26587678E-02
 -1.71615520E-01  1.28977624E-01  7.28861451E-01  3.01331742E-01 -9.73739553E-03
 -7.26587678E-02 -1.71615520E-01  1.28977624E-01  7.28861451E-01  3.01331742E-01
 -9.73739553E-03 -7.26587678E-02 -1.71615520E-01  1.28977624E-01  7.28861451E-01
  3.01331742E-01 -9.73739553E-03 -7.26587678E-02 -1.71615520E-01  1.28977624E-01
  7.28861451E-01  3.01331742E-01 -9.73739553E-03 -7.26587678E-02 -1.71615520E-01
  1.28977624E-01  7.28861451E-01  3.01331742E-01 -9.73739553E-03 -7.26587678E-02
 -1.71615520E-01  1.28977624E-01  7.28861451E-01  3.01331742E-01 -9.73739553E-03
 -7.26587678E-02 -1.71615520E-01  1.28977624E-01  7.28861451E-01  3.01331742E-01
 -9.73739553E-03 -7.26587678E-02 -1.71615520E-01  1.28977624E-01  7.28861451E-01
  3.01331742E-01 -9.73739553E-03 -7.26587678E-02 -1.71615520E-01  1.28977624E-01
  7.28861451E-01  3.01331742E-01 -9.73739553E-03 -7.26587678E-02 -1.71615520E-01
  1.28977624E-01  7.28861451E-01  3.01331742E-01 -9.73739553E-03 -7.26587678E-02
 -1.71615520E-01  1.28977624E-01  7.28861451E-01  3.01331742E-01
P(S=P) Contraction coefficients            R   N=          84
 -8.10494336E-03 -1.71547892E-02  7.36978576E-02  3.96514999E-01  4.97808488E-01
  1.17482582E-01 -8.10494336E-03 -1.71547892E-02  7.36978576E-02  3.96514999E-01
  4.97808488E-01  1.17482582E-01 -8.10494336E-03 -1.71547892E-02  7.36978576E-02
  3.96514999E-01  4.97808488E-01  1.17482582E-01 -8.10494336E-03 -1.71547892E-02
  7.36978576E-02  3.96514999E-01  4.97808488E-01  1.17482582E-01 -8.10494336E-03
 -1.71547892E-02  7.36978576E-02  3.96514999E-01  4.97808488E-01  1.17482582E-01
 -8.10494336E-03 -1.71547892E-02  7.36978576E-02  3.96514999E-01  4.97808488E-01
  1.17482582E-01 -8.10494336E-03 -1.71547892E-02  7.36978576E-02  3.96514999E-01
  4.97808488E-01  1.17482582E-01 -8.10494336E-03 -1.71547892E-02  7.36978576E-02
  3.96514999E-01  4.97808488E-01  1.17482582E-01 -8.10494336E-03 -1.71547892E-02
  7.36978576E-02  3.96514999E-01  4.97808488E-01  1.17482582E-01 -8.10494336E-03
 -1.71547892E-02  7.36978576E-02  3.96514999E-01  4.97808488E-01  1.17482582E-01
  0.00000000E+00  0.00000000E+00  0.00000000E+00  0.00000000E+00  0.00000000E+00
  0.00000000E+00  0.00000000E+00  0.00000000E+00  0.00000000E+00  0.00000000E+00
  0.00000000E+00  0.00000000E+00  0.00000000E+00  0.00000000E+00  0.00000000E+00
  0.00000000E+00  0.00000000E+00  0.00000000E+00  0.00000000E+00  0.00000000E+00
  0.00000000E+00  0.00000000E+00  0.00000000E+00  0.00000000E+00
Coordinates of each shell                  R   N=          42
 -8.23352197E+00 -1.27178323E+00  4.89059840E+00 -7.95951145E+00 -3.53377771E+00
  4.70917921E+00 -6.38916554E+00  2.36197738E-01  5.58035747E+00 -3.89662390E+00
 -7.37002581E-01  6.18696184E+00 -3.09160432E+00  3.30694740E-01  8.69275385E+00
 -3.29569780E+00  2.56246921E+00  9.18783135E+00 -2.06925099E+00 -1.32281734E+00
  1.02328755E+01 -1.08091452E+00 -5.87715313E-01  1.26025806E+01 -1.87649655E+00
 -8.50409070E-02  4.15173145E+00  7.36992735E-01 -9.22167697E-01  4.98888638E+00
 -1.00259758E+01 -3.80173666E-01  4.60660208E+00 -2.39910842E+00 -9.22555752E-01
  2.38709046E+00  8.00144207E-01 -1.31109541E+00  1.27664447E+01 -2.19023651E+00
 -1.38365161E+00  1.40940236E+01
Num ILSW                                   I              100
ILSW                                       I   N=         100
           0           0           0           0           2           0
           0           0           0           0           0          -1
           5           0           0           0           0           0
           0           0           0           0           0           0
           1           1           0           0           0           0
           0           0      100000           0          -1           0
           0           0           0           0           0           0
           0           0           0          40           0           0
           0 -2000000000           1           0           0           0
           0           0           4          52           0           0
           0           1           0           0           0           0
           0           0           0          14           0           1
           0           0           0           0           0           0
           0           0           0           0           0           0
           0           0           0           0           0           0
           0           0           0           0           0           0
           0           0           0           0
Num RLSW                                   I               52
RLSW                                       R   N=          52
  1.00000000E+00  1.00000000E+00  1.00000000E+00  1.00000000E+00  1.00000000E+00
  0.00000000E+00  0.00000000E+00  1.00000000E+00  0.00000000E+00  0.00000000E+00
  0.00000000E+00  0.00000000E+00  1.00000000E+00  0.00000000E+00  0.00000000E+00
  0.00000000E+00  0.00000000E+00  1.00000000E+00  0.00000000E+00  0.00000000E+00
  0.00000000E+00  0.00000000E+00  1.00000000E+00  0.00000000E+00  0.00000000E+00
  0.00000000E+00  0.00000000E+00  1.00000000E+00  0.00000000E+00  0.00000000E+00
  0.00000000E+00  0.00000000E+00  1.00000000E+00  0.00000000E+00  0.00000000E+00
  0.00000000E+00  0.00000000E+00  0.00000000E+00  1.00000000E+00  1.00000000E+00
  0.00000000E+00  1.00000000E+00  0.00000000E+00  0.00000000E+00  0.00000000E+00
  0.00000000E+00  0.00000000E+00  0.00000000E+00  0.00000000E+00  0.00000000E+00
  0.00000000E+00  0.00000000E+00
MxBond                                     I                3
NBond                                      I   N=          14
           3           1           2           3           3           1
           2           3           3           1           1           1
           1           1
IBond                                      I   N=          42
           2           3          11           1           0           0
           1           4           0           3           5           9
           4           6           7           5           0           0
           5           8           0           7          13          14
           4          10          12           9           0           0
           1           0           0           9           0           0
           8           0           0           8           0           0
RBond                                      R   N=          42
  2.00000000E+00  1.50000000E+00  1.00000000E+00  2.00000000E+00  0.00000000E+00
  0.00000000E+00  1.50000000E+00  1.00000000E+00  0.00000000E+00  1.00000000E+00
  1.00000000E+00  1.00000000E+00  1.00000000E+00  2.00000000E+00  1.50000000E+00
  2.00000000E+00  0.00000000E+00  0.00000000E+00  1.50000000E+00  1.00000000E+00
  0.00000000E+00  1.00000000E+00  1.00000000E+00  1.00000000E+00  1.00000000E+00
  1.00000000E+00  1.00000000E+00  1.00000000E+00  0.00000000E+00  0.00000000E+00
  1.00000000E+00  0.00000000E+00  0.00000000E+00  1.00000000E+00  0.00000000E+00
  0.00000000E+00  1.00000000E+00  0.00000000E+00  0.00000000E+00  1.00000000E+00
  0.00000000E+00  0.00000000E+00
Virial Ratio                               R      9.825935062795900E-01
SCF Energy                                 R     -1.721875756832389E+00
Total Energy                               R     -1.721875756832389E+00
RMS Density                                R      4.028864496535154E-09
Job Status                                 I                1
Nuclear derivative order                   I                0
External E-field                           R   N=          35
  0.00000000E+00  0.00000000E+00  0.00000000E+00  0.00000000E+00  0.00000000E+00
  0.00000000E+00  0.00000000E+00  0.00000000E+00  0.00000000E+00  0.00000000E+00
  0.00000000E+00  0.00000000E+00  0.00000000E+00  0.00000000E+00  0.00000000E+00
  0.00000000E+00  0.00000000E+00  0.00000000E+00  0.00000000E+00  0.00000000E+00
  0.00000000E+00  0.00000000E+00  0.00000000E+00  0.00000000E+00  0.00000000E+00
  0.00000000E+00  0.00000000E+00  0.00000000E+00  0.00000000E+00  0.00000000E+00
  0.00000000E+00  0.00000000E+00  0.00000000E+00  0.00000000E+00  0.00000000E+00
IOpCl                                      I                0
IROHF                                      I                0
Alpha Orbital Energies                     R   N=          44
 -1.75414634E+00 -1.66112119E+00 -1.65122952E+00 -1.56485919E+00 -1.50847002E+00
 -1.47509149E+00 -1.36745735E+00 -1.27227237E+00 -1.22358962E+00 -1.17232965E+00
 -1.12914654E+00 -1.11505721E+00 -1.09199190E+00 -1.05664304E+00 -1.02342853E+00
 -1.00760205E+00 -9.83062509E-01 -9.65541359E-01 -9.50546083E-01 -9.13500473E-01
 -8.86957390E-01 -8.57882559E-01 -8.05706353E-01 -7.97755562E-01 -6.57992965E-01
 -5.66128351E-01 -5.39659677E-01 -5.17350240E-01 -4.90801817E-01 -4.71943937E-01
 -4.63107792E-01 -4.50140044E-01 -4.00363055E-01 -3.89446177E-01 -3.79744652E-01
 -3.73515021E-01 -3.66965079E-01 -3.56022434E-01 -3.49090811E-01 -3.29958998E-01
 -2.76578180E-01 -2.69219978E-01 -2.45244185E-01 -8.75875731E-02
Alpha MO coefficients                      R   N=        1936
  2.02101848E-03  5.56589634E-03  1.26964758E-03  3.90063796E-03 -6.20298681E-04
  8.22921215E-04  4.84354355E-04  6.27233101E-04  3.25963538E-02  2.33830665E-02
 -3.32093770E-03  1.76136742E-02  1.11102702E-01  2.75049228E-02  4.13649249E-02
  8.23394700E-02  5.19117269E-01  5.92105150E-02  8.93540137E-02  1.57587332E-01
  4.41448346E-01  4.06311872E-02 -2.62635426E-01 -2.38651427E-02  5.27881582E-01
 -3.75415784E-02  2.11654883E-01 -1.36472180E-02  2.19848116E-01 -6.30886092E-02
 -9.96934728E-03 -1.36019148E-01  2.89310661E-02 -7.46467899E-03 -5.61110763E-04
  2.84896977E-02  1.38265641E-02 -1.17597986E-02  3.04646877E-03  6.34971009E-03
 -5.88285210E-04  7.66945119E-03  6.45520831E-02  4.76178552E-02  1.51789890E-01
  5.32071418E-02 -2.48526423E-02  1.27420947E-02  1.18171370E-01  3.10386002E-03
  7.81684209E-02  1.02736797E-02  1.90788526E-01  7.63806052E-03 -5.78706066E-02
 -3.08517684E-03  9.09787762E-02 -5.63081075E-02  5.20269353E-02 -1.85149932E-02
  8.23862052E-02 -1.19116798E-01  3.68255725E-01 -8.92172387E-02  5.75021906E-01
 -5.47683237E-03 -1.56745112E-01 -7.59894796E-02 -4.99495836E-01 -2.58272851E-02
 -8.20902616E-02 -6.52137640E-02 -2.72392515E-01  4.89881499E-02  4.55280716E-02
  1.26776431E-01  3.32337213E-02 -2.14775837E-02  1.72930149E-03  9.20092586E-03
  2.03457515E-03 -4.15579498E-03  2.46289261E-03 -3.10182256E-03  4.20942127E-02
  2.51998490E-02 -9.61221591E-02 -6.35465119E-02  4.92032963E-01  1.49027806E-01
 -1.14164990E-01  2.97327491E-02  4.26576783E-01  2.38590522E-03  2.65164230E-01
  3.16898516E-02  4.73076644E-01 -4.50833515E-02 -1.91511945E-01 -3.83539608E-02
  2.13494603E-01 -1.11330418E-01  7.62129966E-03 -3.56430577E-02  1.07732020E-02
  4.04199617E-03 -1.59613564E-01 -3.75428771E-02 -2.39196288E-01 -8.75223187E-03
  5.48733015E-02  1.04488776E-02  1.39414207E-01 -4.95152554E-03  1.59727082E-02
 -4.19472038E-03  5.92626210E-02 -1.11960534E-02 -1.23055887E-02 -2.94182938E-02
  7.78341723E-02 -3.88657925E-02 -1.93232249E-02  1.26426513E-02  1.89921545E-02
 -1.67351691E-02  1.07759463E-03 -1.96421583E-03  1.39043467E-01  6.82792730E-02
  2.11881755E-02  1.38681716E-02  1.52682865E-01 -7.21383989E-02 -2.71008566E-01
 -4.78717125E-02  4.74693168E-01 -4.84512908E-02  1.68461217E-01  6.47934386E-03
 -3.32782339E-01 -1.24785630E-01  3.55778154E-02 -2.39226345E-02 -4.09640169E-01
  3.86566278E-03 -7.32263201E-02  2.11505626E-02 -1.54451079E-01  3.13395872E-02
  1.28481427E-01  1.56593653E-01  1.59008778E-01  1.44531824E-02  7.70322829E-03
  4.13286230E-02  2.92857734E-02  5.52621022E-02  5.34075298E-03  1.31270527E-01
  1.31014996E-01 -1.17827166E-02 -1.81580655E-02 -3.28410312E-02 -3.17575875E-01
  5.31428529E-02  6.45665370E-02 -4.34659809E-02 -1.31603694E-01  8.54309474E-02
 -1.37176722E-02  1.52314675E-02  4.89391055E-02 -2.52727187E-01  5.19522282E-02
  3.33291701E-02  9.90775126E-02  1.02934755E-01  3.04413040E-01  6.88411973E-02
 -3.97974076E-01  4.36476868E-02 -6.45208502E-02  8.59803022E-03  4.30914109E-01
 -1.07538966E-01 -8.72073522E-02 -2.80437330E-02 -1.20722633E-01 -2.18380942E-01
  2.03032811E-03  1.31351567E-03 -1.35393486E-01 -3.65561371E-02  8.16308829E-02
  6.90339177E-02  7.27175940E-02 -1.10402387E-02  2.47710705E-02  2.29030027E-02
  2.33176094E-02  5.87588712E-02 -1.55070211E-02  1.54503207E-01  1.70506441E-01
 -8.53607657E-03 -2.89802396E-02 -2.97116648E-02 -3.89222415E-01 -3.44193335E-02
  9.16619286E-02 -5.30222551E-04 -2.23053887E-01  1.19849308E-01 -2.11501121E-02
  3.12284511E-02  5.53086151E-02 -3.40585178E-01  7.33020429E-02  4.55117414E-02
  2.38740494E-02  1.55991714E-02  4.59487287E-02 -2.98797998E-03 -5.62109644E-02
  7.86763307E-03 -4.20486962E-03 -2.77151434E-03  3.83906088E-02 -2.82247751E-02
 -9.37705224E-03 -5.44588339E-02 -7.87469942E-02  1.22614095E-02 -1.82020147E-02
 -2.07496275E-01 -3.17779611E-01 -9.25899623E-03  2.14450848E-01  3.18298093E-02
  1.99521500E-01  2.38398736E-03  7.76044580E-02  1.93619913E-02 -1.64263720E-02
  1.93683381E-01 -6.58426202E-02  3.65588962E-01  4.38239913E-01  4.68202905E-03
 -7.59425917E-02 -5.27499339E-02  3.27833290E-01  2.68793451E-02 -8.36068897E-02
 -1.02444112E-01  1.71177502E-01 -8.48241414E-02  1.48917687E-02 -4.82444543E-02
  1.34068630E-02  3.84067364E-01  2.04527708E-01  1.17589393E-01 -2.76645792E-01
  2.62454458E-02 -2.03202524E-01 -1.33276765E-02  2.10887575E-01  1.37397506E-02
 -6.30460895E-02 -2.44127504E-03 -7.76521562E-04  3.54977219E-01  3.26577379E-02
  1.23896513E-01  3.97144729E-01 -7.10865971E-02  1.12051637E-01  5.02239602E-02
  2.92086348E-02 -1.36920953E-01  3.88580138E-02 -2.78835430E-01 -4.38000480E-02
 -5.38757526E-02  7.46478131E-04 -1.06252155E-01 -1.16656020E-01  1.09072081E-01
 -9.31611583E-02  1.73158828E-01  3.28059148E-01  5.31205146E-02 -6.05991752E-02
  3.73703393E-02 -9.98859241E-02 -1.36126248E-01  5.42652076E-02  1.61749061E-01
 -1.43726532E-01  4.02721715E-02 -6.91052138E-03  4.03848359E-02 -1.85107350E-01
 -2.37512973E-01  1.89824673E-01  9.72049745E-02  2.12437022E-01 -1.13872446E-01
  9.97979712E-02 -5.04038745E-05 -1.25550383E-01 -5.67998102E-02  7.36487849E-02
  2.01725071E-03 -9.67685348E-02 -1.99756537E-01  1.56168533E-02 -1.39850695E-02
  3.32495549E-02  2.17703601E-01  5.85868751E-03  1.37317001E-01  1.05281490E-01
  1.90677034E-02  1.03063575E-02 -1.94378599E-01 -5.86695366E-02  2.08139538E-02
 -3.82440271E-02 -9.55524138E-02 -1.26585095E-01  6.88164055E-02 -3.08235383E-02
 -1.27080788E-02  1.77719530E-01  9.11173007E-02 -1.97109642E-02  7.52057922E-02
  8.17281099E-02  2.82260310E-01  4.87703034E-03  3.11131942E-01  4.91040732E-01
 -1.03441465E-01  3.74499761E-02  2.46874288E-02  1.86631687E-01 -4.04216500E-01
  1.43984079E-01  5.34620222E-02 -2.38136193E-01  2.03422165E-01 -8.39288706E-02
  3.49262261E-02  1.55818187E-01  9.79284962E-02 -1.01941675E-01  1.19624313E-02
  1.96483011E-01  1.55110745E-01 -3.57714109E-02  1.96382276E-02 -3.15822369E-02
 -1.53228830E-01 -1.33583227E-02 -1.34289382E-01 -2.20360013E-01  3.85764650E-02
 -6.00989635E-03  1.46750971E-01  1.63330328E-01  4.95641669E-03  1.56662464E-01
  1.06346003E-01  1.92298614E-01  4.08785255E-03 -1.88181125E-02  6.99098060E-02
 -2.22964581E-01 -1.28276767E-01 -2.45485420E-03 -1.51577197E-01  4.23534370E-02
  2.37232263E-01 -8.24185338E-03  1.58063145E-01  4.52854026E-01 -5.71189429E-02
  2.19599521E-02  1.54065581E-03 -2.53690573E-01 -2.78593057E-01 -1.92658619E-01
 -7.49992308E-02  1.57062764E-01 -1.85153050E-01  2.78117702E-02 -6.83533788E-02
 -1.24905708E-01 -9.67231698E-02  9.05281423E-02 -2.73886628E-02 -1.51717418E-01
  1.90806093E-02  1.55037260E-02 -5.87161079E-02  2.50999982E-01  1.95844225E-01
 -5.46324770E-03 -1.25713937E-01 -2.01239050E-01  7.40535525E-02 -5.62433602E-02
 -1.93182891E-01  2.75871244E-01  2.06679986E-02  3.15792284E-01 -4.29284412E-02
  2.72454669E-01  1.54691706E-01 -1.80607970E-01  8.73301547E-02 -2.16108326E-01
 -9.67310208E-02 -7.95140469E-02 -2.15046015E-01  8.19972089E-02 -2.27116352E-01
  4.69287936E-03  2.07935603E-01 -2.27103006E-01 -1.80494002E-02 -3.88341726E-03
  4.19819917E-02  2.00541285E-01 -1.23144747E-01 -1.67718167E-01 -8.41993376E-02
 -7.09999265E-02  1.97076595E-01  1.00170886E-02 -1.63795270E-03  5.72330229E-02
  1.10457841E-01 -4.26077024E-02 -4.61511701E-03  4.01055721E-02 -5.60109095E-02
 -6.28296873E-02 -1.38435889E-01  5.36983879E-03  1.21162763E-01 -7.11547458E-02
 -1.59377273E-01 -4.20608703E-02  4.32612841E-01 -9.37664848E-02  4.03246156E-02
  1.58465568E-01  3.12274924E-01  1.98892307E-01  7.16782342E-02 -6.68529070E-02
  1.72175546E-01  1.16552910E-01 -3.99453455E-01  7.81845008E-02  3.59639417E-01
  4.36911465E-02  1.41756084E-01  3.63682388E-02 -1.06744426E-01 -1.42280265E-02
  9.80790963E-02 -1.13634557E-01 -1.69153564E-02 -3.96694145E-03  3.07984871E-02
 -1.50784485E-01 -6.20765017E-02  2.66259247E-01 -1.02122792E-02  4.78511425E-03
 -1.65091602E-02 -1.18141335E-02  5.91182369E-02 -1.53066710E-02 -7.88128454E-03
  5.56028057E-03  3.77242879E-02 -3.01905438E-02 -3.31592689E-02 -3.85728590E-02
  1.19201304E-01  1.43052466E-02 -9.20594685E-02 -8.66306839E-02  2.48533340E-01
 -3.88853934E-02 -2.39485569E-01 -3.36618991E-01 -5.23300290E-02  3.55635540E-01
 -2.70752574E-01  3.70956296E-01  9.48871861E-02  1.32855330E-01 -2.21269666E-01
 -2.71148061E-01 -2.07530732E-01  8.21283888E-02  1.34122629E-01 -9.19878082E-02
  2.37708349E-01 -9.98287224E-02  1.16321234E-01 -4.20874371E-02 -1.53739937E-01
  8.89621429E-02  2.59390774E-02 -1.90607544E-02 -2.32532506E-02  3.23284787E-03
  1.10823720E-01  1.69751602E-01  7.02970462E-02 -5.53789816E-02  9.05162549E-02
  2.85076758E-02  8.93648383E-02  9.20148247E-02  5.55535531E-02 -7.81425797E-02
  5.00258191E-02  8.38611748E-02 -1.33430519E-01  4.02353838E-02  8.53890661E-02
 -1.70916262E-01 -3.39419747E-02  7.59152717E-02  2.79478097E-01  6.24735362E-02
  1.05277767E-01  1.07313840E-01 -3.82353274E-01 -4.44443386E-02  1.05218436E-01
 -2.53255974E-03 -3.60248126E-01  1.82551725E-01  3.89241978E-01 -2.06598218E-01
 -2.05331224E-02 -1.70160833E-01  1.61180840E-01 -1.39593381E-01 -2.30697561E-01
 -1.23966585E-01  1.44518235E-01  3.24487166E-02 -2.18807356E-01  4.88696969E-02
  4.09490616E-02  1.10171287E-03 -2.12122127E-02 -8.65101430E-02  1.74734247E-01
  2.16882218E-02 -1.11818117E-01 -2.21994855E-02  4.51354165E-01  5.09506441E-02
  1.09342198E-01  3.45007238E-02  3.05359652E-01 -3.36850486E-03  6.57683546E-02
 -1.37531791E-01 -3.90650323E-01 -1.92082875E-01 -1.39944711E-01  1.07316049E-02
  3.25735539E-01 -1.53199087E-01  5.46255782E-02  5.14537339E-02 -1.38819303E-01
 -6.57978600E-03 -9.57770517E-02 -1.00416382E-02 -1.22458932E-01 -4.47786409E-02
 -7.08396136E-02  4.38553704E-03 -1.46691115E-01 -1.18874594E-01  1.47826746E-01
  3.48692127E-02 -1.93657973E-01 -3.26498795E-02  3.51393963E-02  8.91199256E-02
 -6.43470939E-02 -4.69054703E-02  1.22307142E-01 -1.86646140E-01 -7.31485193E-02
  6.30227551E-03  3.86357409E-05 -2.93335164E-01 -4.14148852E-02 -9.86351673E-02
  5.50629249E-02  1.10614197E-01  1.54391140E-01 -2.91026509E-01  4.41061492E-02
 -4.28048016E-01  6.67476560E-02  4.99389998E-01  1.08037608E-01 -2.77329841E-01
  1.72845859E-01 -3.35905376E-01  5.96981231E-02  1.26312598E-01 -1.87100900E-01
 -1.67590122E-01  3.07261861E-02 -6.47806102E-05  3.08088775E-02  3.01213945E-02
  3.84801678E-03 -2.10443066E-02  6.44524451E-02 -4.16997748E-02  1.66961870E-02
 -3.41491188E-02  1.27255523E-01  6.68665426E-02  1.42964193E-02 -2.87806100E-02
  5.30999516E-02  1.39368253E-02 -9.66882429E-02 -1.28575512E-01  2.10051159E-02
 -8.04275858E-02 -9.04619954E-02  1.32055741E-01  6.73065783E-02 -4.80236164E-02
  1.06549128E-02 -1.48502021E-01  4.13884917E-02  7.03927260E-03 -4.27313984E-02
  1.27967233E-02  6.87562974E-02 -3.14229423E-03 -2.17001852E-01 -3.96146667E-02
  5.34808286E-02  7.36046522E-02 -1.87165499E-01 -1.67250271E-02  7.98746568E-02
  1.70949526E-02 -2.30637464E-01 -6.30907536E-02  8.96244917E-03  2.57875582E-02
 -2.12261807E-01 -9.36331442E-03 -2.27638873E-01  1.17946717E-01  1.74485287E-01
 -1.23995491E-01 -3.13020106E-01 -3.14493074E-01  5.19506731E-02  2.01608421E-01
  7.05909656E-02 -3.25418748E-01 -1.15867428E-01 -1.79255387E-01  3.88415891E-01
 -2.29288205E-01 -2.34487678E-02  7.10205278E-02 -5.40187160E-02  8.36394453E-03
  8.06442725E-02 -6.72956173E-03 -2.01759615E-02  5.34681585E-03  4.92287712E-03
 -1.70446814E-02 -7.89984230E-02  2.26961715E-01 -8.84436918E-02 -1.25833493E-02
 -1.13791343E-01 -1.63151444E-04  4.49217932E-01  5.65439187E-02 -9.43823600E-02
 -1.31872825E-01  4.58662179E-01 -1.64511824E-02 -1.34589946E-01 -5.06756529E-02
  3.10173386E-01  7.09446202E-02  4.44012366E-02 -8.12206282E-02 -8.39885900E-03
 -3.55091489E-02 -1.28574552E-01  2.92101659E-03  1.49128543E-01 -2.07243293E-02
 -1.97385655E-01 -9.28235293E-02  2.61176397E-01 -4.61013476E-02  2.10843446E-01
  1.23538546E-01  4.32465231E-03 -8.94580586E-02  2.36679480E-01  2.21583284E-03