 Entering Gaussian System, Link 0=g16
 Input=NCCONCCOCCCNCCOCCCNCCOCCNCCNNCCONCCOCCCNCCOCOCNCCOCOCNCCOCCCNCCOCO_2.gjf
 Output=NCCONCCOCCCNCCOCCCNCCOCCNCCNNCCONCCOCCCNCCOCOCNCCOCOCNCCOCCCNCCOCO_2.log
 Initial command:
 /work/01114/jfonner/frontera/gaussian/16rC.01/g16/l1.exe "/scratch1/08249/sa748948/lsqc/26989325/Gau-41082.inp" -scrdir="/scratch1/08249/sa748948/lsqc/26989325/"
 Entering Link 1 = /work/01114/jfonner/frontera/gaussian/16rC.01/g16/l1.exe PID=     41091.
  
 Copyright (c) 1988-2019, Gaussian, Inc.  All Rights Reserved.
  
 This is part of the Gaussian(R) 16 program.  It is based on
 the Gaussian(R) 09 system (copyright 2009, Gaussian, Inc.),
 the Gaussian(R) 03 system (copyright 2003, Gaussian, Inc.),
 the Gaussian(R) 98 system (copyright 1998, Gaussian, Inc.),
 the Gaussian(R) 94 system (copyright 1995, Gaussian, Inc.),
 the Gaussian 92(TM) system (copyright 1992, Gaussian, Inc.),
 the Gaussian 90(TM) system (copyright 1990, Gaussian, Inc.),
 the Gaussian 88(TM) system (copyright 1988, Gaussian, Inc.),
 the Gaussian 86(TM) system (copyright 1986, Carnegie Mellon
 University), and the Gaussian 82(TM) system (copyright 1983,
 Carnegie Mellon University). Gaussian is a federally registered
 trademark of Gaussian, Inc.
  
 This software contains proprietary and confidential information,
 including trade secrets, belonging to Gaussian, Inc.
  
 This software is provided under written license and may be
 used, copied, transmitted, or stored only in accord with that
 written license.
  
 The following legend is applicable only to US Government
 contracts under FAR:
  
                    RESTRICTED RIGHTS LEGEND
  
 Use, reproduction and disclosure by the US Government is
 subject to restrictions as set forth in subparagraphs (a)
 and (c) of the Commercial Computer Software - Restricted
 Rights clause in FAR 52.227-19.
  
 Gaussian, Inc.
 340 Quinnipiac St., Bldg. 40, Wallingford CT 06492
  
  
 ---------------------------------------------------------------
 Warning -- This program may not be used in any manner that
 competes with the business of Gaussian, Inc. or will provide
 assistance to any competitor of Gaussian, Inc.  The licensee
 of this program is prohibited from giving any competitor of
 Gaussian, Inc. access to this program.  By using this program,
 the user acknowledges that Gaussian, Inc. is engaged in the
 business of creating and licensing software in the field of
 computational chemistry and represents and warrants to the
 licensee that it is not a competitor of Gaussian, Inc. and that
 it will not use this program in any manner prohibited above.
 ---------------------------------------------------------------
  

 Cite this work as:
 Gaussian 16, Revision C.01,
 M. J. Frisch, G. W. Trucks, H. B. Schlegel, G. E. Scuseria, 
 M. A. Robb, J. R. Cheeseman, G. Scalmani, V. Barone, 
 G. A. Petersson, H. Nakatsuji, X. Li, M. Caricato, A. V. Marenich, 
 J. Bloino, B. G. Janesko, R. Gomperts, B. Mennucci, H. P. Hratchian, 
 J. V. Ortiz, A. F. Izmaylov, J. L. Sonnenberg, D. Williams-Young, 
 F. Ding, F. Lipparini, F. Egidi, J. Goings, B. Peng, A. Petrone, 
 T. Henderson, D. Ranasinghe, V. G. Zakrzewski, J. Gao, N. Rega, 
 G. Zheng, W. Liang, M. Hada, M. Ehara, K. Toyota, R. Fukuda, 
 J. Hasegawa, M. Ishida, T. Nakajima, Y. Honda, O. Kitao, H. Nakai, 
 T. Vreven, K. Throssell, J. A. Montgomery, Jr., J. E. Peralta, 
 F. Ogliaro, M. J. Bearpark, J. J. Heyd, E. N. Brothers, K. N. Kudin, 
 V. N. Staroverov, T. A. Keith, R. Kobayashi, J. Normand, 
 K. Raghavachari, A. P. Rendell, J. C. Burant, S. S. Iyengar, 
 J. Tomasi, M. Cossi, J. M. Millam, M. Klene, C. Adamo, R. Cammi, 
 J. W. Ochterski, R. L. Martin, K. Morokuma, O. Farkas, 
 J. B. Foresman, and D. J. Fox, Gaussian, Inc., Wallingford CT, 2019.
 
 ******************************************
 Gaussian 16:  ES64L-G16RevC.01  3-Jul-2019
                 7-Jan-2022 
 ******************************************
 %chk=NCCONCCOCCCNCCOCCCNCCOCCNCCNNCCONCCOCCCNCCOCOCNCCOCOCNCCOCCCNCCOCO_2.chk
 %nproc=56
 Will use up to   56 processors via shared memory.
 %mem=3gb
 ---------------------------------
 #p int=acc2e=12 pm6 charge nosymm
 ---------------------------------
 1/18=10,28=-2,38=1,125=101,172=1/1;
 2/12=2,15=1,17=6,18=5,40=1/2;
 3/5=2,25=1,27=12,41=3900000/1,2,3;
 4/35=1/1;
 5/5=2,35=1,38=5,87=12/2;
 6/7=2,8=2,9=2,10=2,28=1,87=12/1;
 99/5=1,9=1/99;
 Leave Link    1 at Fri Jan  7 12:00:13 2022, MaxMem=   402653184 cpu:               2.8 elap:               0.5
 (Enter /work/01114/jfonner/frontera/gaussian/16rC.01/g16/l101.exe)
 --------------
 Atom number=21
 --------------
 Symbolic Z-matrix:
 Charge =  5 Multiplicity = 1
 c                    -4.35699  -0.673     2.58799 
 o                    -4.21199  -1.86999   2.49199 
 n                    -3.381     0.12499   2.953 
 c                    -2.062    -0.39      3.274 
 c                    -1.63601   0.175     4.60001 
 o                    -1.74401   1.356     4.86199 
 n                    -1.095    -0.7       5.415 
 c                    -0.572    -0.31101   6.669 
 c                    -0.993    -0.045     2.197 
 c                     0.39     -0.48799   2.64 
 c                     0.84002  -0.85401   6.792 
 o                     1.027    -2.022     6.72 
 n                     1.81001   0.00199   7.02301 
 c                     3.191    -0.42899   7.101 
 c                    -1.411    -0.91299   7.79701 
 c                    -0.72701  -0.645     9.12301 
 c                    -2.8      -0.349     7.789 
 h                    -5.30552  -0.20118   2.43771 
 h                    -1.26955  -0.4882    1.26319 
 h                     3.70314   0.05969   7.90336 
 h                     3.66073  -0.2038    6.16636 
 
 ITRead=  0  0  0  0  0  0  0  0  0  0  0  0  0  0  0  0  0  0  0  0
 ITRead=  0
 MicOpt= -1 -1 -1 -1 -1 -1 -1 -1 -1 -1 -1 -1 -1 -1 -1 -1 -1 -1 -1 -1
 MicOpt= -1
 NAtoms=     21 NQM=       21 NQMF=       0 NMMI=      0 NMMIF=      0
                NMic=       0 NMicF=      0.
                    Isotopes and Nuclear Properties:
 (Nuclear quadrupole moments (NQMom) in fm**2, nuclear magnetic moments (NMagM)
  in nuclear magnetons)

  Atom         1           2           3           4           5           6           7           8           9          10
 IAtWgt=          12          16          14          12          12          16          14          12          12          12
 AtmWgt=  12.0000000  15.9949146  14.0030740  12.0000000  12.0000000  15.9949146  14.0030740  12.0000000  12.0000000  12.0000000
 NucSpn=           0           0           2           0           0           0           2           0           0           0
 AtZEff=  -0.0000000  -0.0000000  -0.0000000  -0.0000000  -0.0000000  -0.0000000  -0.0000000  -0.0000000  -0.0000000  -0.0000000
 NQMom=    0.0000000   0.0000000   2.0440000   0.0000000   0.0000000   0.0000000   2.0440000   0.0000000   0.0000000   0.0000000
 NMagM=    0.0000000   0.0000000   0.4037610   0.0000000   0.0000000   0.0000000   0.4037610   0.0000000   0.0000000   0.0000000
 AtZNuc=   6.0000000   8.0000000   7.0000000   6.0000000   6.0000000   8.0000000   7.0000000   6.0000000   6.0000000   6.0000000

  Atom        11          12          13          14          15          16          17          18          19          20
 IAtWgt=          12          16          14          12          12          12          12           1           1           1
 AtmWgt=  12.0000000  15.9949146  14.0030740  12.0000000  12.0000000  12.0000000  12.0000000   1.0078250   1.0078250   1.0078250
 NucSpn=           0           0           2           0           0           0           0           1           1           1
 AtZEff=  -0.0000000  -0.0000000  -0.0000000  -0.0000000  -0.0000000  -0.0000000  -0.0000000  -0.0000000  -0.0000000  -0.0000000
 NQMom=    0.0000000   0.0000000   2.0440000   0.0000000   0.0000000   0.0000000   0.0000000   0.0000000   0.0000000   0.0000000
 NMagM=    0.0000000   0.0000000   0.4037610   0.0000000   0.0000000   0.0000000   0.0000000   2.7928460   2.7928460   2.7928460
 AtZNuc=   6.0000000   8.0000000   7.0000000   6.0000000   6.0000000   6.0000000   6.0000000   1.0000000   1.0000000   1.0000000

  Atom        21
 IAtWgt=           1
 AtmWgt=   1.0078250
 NucSpn=           1
 AtZEff=  -0.0000000
 NQMom=    0.0000000
 NMagM=    2.7928460
 AtZNuc=   1.0000000
 Background charge distribution read from input stream:
 Point Charges:
 XYZ=   -6.8150   -0.6680    1.6070 Q=    0.1840 A=    0.0000 R=    0.0000 C=    0.0000
 XYZ=   -5.7140    0.0020    2.3730 Q=    0.1690 A=    0.0000 R=    0.0000 C=    0.0000
 XYZ=   -1.3780   -0.6620    0.8970 Q=    0.8742 A=    0.0000 R=    0.0000 C=    0.0000
 XYZ=    3.9110    0.2580    8.2290 Q=    0.2652 A=    0.0000 R=    0.0000 C=    0.0000
 XYZ=    4.0640    1.4780    8.2280 Q=   -0.5489 A=    0.0000 R=    0.0000 C=    0.0000
 XYZ=    3.8710   -0.1030    5.7480 Q=    0.4467 A=    0.0000 R=    0.0000 C=    0.0000
 XYZ=    5.2470   -0.6430    5.5810 Q=   -0.4177 A=    0.0000 R=    0.0000 C=    0.0000
 XYZ=    5.8610   -0.6890    4.3530 Q=   -0.2968 A=    0.0000 R=    0.0000 C=    0.0000
 XYZ=    6.1080   -1.1970    6.4480 Q=    0.2630 A=    0.0000 R=    0.0000 C=    0.0000
 XYZ=    7.0590   -1.2270    4.4820 Q=    0.6103 A=    0.0000 R=    0.0000 C=    0.0000
 XYZ=    7.2390   -1.5230    5.7510 Q=   -0.3347 A=    0.0000 R=    0.0000 C=    0.0000
 XYZ=    4.3640   -0.5270    9.1890 Q=   -0.5070 A=    0.0000 R=    0.0000 C=    0.0000
 XYZ=    5.0670    0.0200   10.3260 Q=    0.3996 A=    0.0000 R=    0.0000 C=    0.0000
 XYZ=    4.2710    0.8170   11.2960 Q=    0.1621 A=    0.0000 R=    0.0000 C=    0.0000
 XYZ=    4.3590    2.0330   11.3670 Q=   -0.2980 A=    0.0000 R=    0.0000 C=    0.0000
 XYZ=    3.4920    0.1040   12.0730 Q=   -0.4667 A=    0.0000 R=    0.0000 C=    0.0000
 XYZ=    2.5850    0.6770   13.0850 Q=    0.2746 A=    0.0000 R=    0.0000 C=    0.0000
 XYZ=    3.0060    0.0470   14.3610 Q=    0.2391 A=    0.0000 R=    0.0000 C=    0.0000
 XYZ=    2.9580   -1.1690   14.5150 Q=   -0.4626 A=    0.0000 R=    0.0000 C=    0.0000
 XYZ=    1.1270    0.3300   12.8270 Q=   -1.2217 A=    0.0000 R=    0.0000 C=    0.0000
 XYZ=    0.2480    0.6750   14.0380 Q=    0.9822 A=    0.0000 R=    0.0000 C=    0.0000
 XYZ=    0.6740    1.0470   11.5960 Q=    0.9278 A=    0.0000 R=    0.0000 C=    0.0000
 XYZ=    3.4810    0.8870   15.2620 Q=   -0.6284 A=    0.0000 R=    0.0000 C=    0.0000
 XYZ=    4.1630    0.3920   16.4420 Q=    0.1821 A=    0.0000 R=    0.0000 C=    0.0000
 XYZ=    3.4240    0.9650   17.6310 Q=    0.3166 A=    0.0000 R=    0.0000 C=    0.0000
 XYZ=    3.1360    2.1100   17.6120 Q=   -0.5694 A=    0.0000 R=    0.0000 C=    0.0000
 XYZ=    5.6880    0.7500   16.3890 Q=   -0.3175 A=    0.0000 R=    0.0000 C=    0.0000
 XYZ=    6.2640    0.1300   15.2360 Q=   -0.3082 A=    0.0000 R=    0.0000 C=    0.0000
 XYZ=    6.4200    0.2100   17.5690 Q=    0.9463 A=    0.0000 R=    0.0000 C=    0.0000
 XYZ=    3.1730    0.1290   18.6470 Q=   -0.5421 A=    0.0000 R=    0.0000 C=    0.0000
 XYZ=    2.5590    0.5160   19.9030 Q=    0.0236 A=    0.0000 R=    0.0000 C=    0.0000
 XYZ=    3.3500   -0.1220   21.0140 Q=    0.1847 A=    0.0000 R=    0.0000 C=    0.0000
 XYZ=    3.3660   -1.3390   21.1400 Q=   -0.4163 A=    0.0000 R=    0.0000 C=    0.0000
 XYZ=    1.1380   -0.0210   19.9830 Q=   -0.2907 A=    0.0000 R=    0.0000 C=    0.0000
 XYZ=    0.3930    0.3940   18.8240 Q=   -0.3415 A=    0.0000 R=    0.0000 C=    0.0000
 XYZ=    0.4860    0.5010   21.1670 Q=    0.7765 A=    0.0000 R=    0.0000 C=    0.0000
 XYZ=    4.0670    0.6880   21.7680 Q=   -0.6191 A=    0.0000 R=    0.0000 C=    0.0000
 XYZ=    4.8880    0.2050   22.8510 Q=    0.2833 A=    0.0000 R=    0.0000 C=    0.0000
 XYZ=    4.3500    0.7690   24.1740 Q=    0.1730 A=    0.0000 R=    0.0000 C=    0.0000
 XYZ=    4.1610    1.9810   24.2690 Q=   -0.2861 A=    0.0000 R=    0.0000 C=    0.0000
 XYZ=    6.3620    0.6140   22.6520 Q=   -1.1933 A=    0.0000 R=    0.0000 C=    0.0000
 XYZ=    7.1520    0.2970   23.8740 Q=    0.8585 A=    0.0000 R=    0.0000 C=    0.0000
 XYZ=    6.9530   -0.1210   21.4550 Q=    0.9590 A=    0.0000 R=    0.0000 C=    0.0000
 XYZ=    4.0650   -0.1200   25.1510 Q=   -0.4907 A=    0.0000 R=    0.0000 C=    0.0000
 XYZ=    3.7200    0.3130   26.5150 Q=   -0.3576 A=    0.0000 R=    0.0000 C=    0.0000
 XYZ=    4.9410    0.1400   27.4200 Q=    0.0549 A=    0.0000 R=    0.0000 C=    0.0000
 XYZ=    5.7140   -0.8090   27.2870 Q=   -0.0565 A=    0.0000 R=    0.0000 C=    0.0000
 XYZ=    2.4990   -0.4220   27.0620 Q=    1.1023 A=    0.0000 R=    0.0000 C=    0.0000
 XYZ=    5.2500    0.9550   28.2940 Q=    0.3115 A=    0.0000 R=    0.0000 C=    0.0000
 Pt Chg Charge=              0.9989 electrons
 Pt Chg Dipole moment (Debye):
    X=            -18.5513    Y=            -10.2534    Z=             40.5937  Tot=             45.7944
 Pt Chg Quadrupole moment (Debye-Ang):
   XX=            241.6905   YY=            -27.1934   ZZ=           1960.2962
   XY=            -49.6478   XZ=            197.0968   YZ=           -136.8380
 Pt Chg Traceless Quadrupole moment (Debye-Ang):
   XX=           -483.2406   YY=           -752.1245   ZZ=           1235.3651
   XY=            -49.6478   XZ=            197.0968   YZ=           -136.8380
 Pt Chg Octapole moment (Debye-Ang**2):
  XXX=           1485.1001  YYY=            -45.1033  ZZZ=          69738.5910  XYY=           -137.3920
  XXY=           -308.4022  XXZ=           4377.1648  XZZ=           9874.8258  YZZ=          -2981.7727
  YYZ=           -495.3956  XYZ=           -877.2533
 Pt Chg Hexadecapole moment (Debye-Ang**3):
 XXXX=          19488.6300 YYYY=           -116.0409 ZZZZ=        2180693.7648 XXXY=          -1174.0034
 XXXZ=          40968.1098 YYYX=           -187.7620 YYYZ=           -696.4307 ZZZX=         315928.6721
 ZZZY=         -68035.6566 XXYY=           -489.9877 XXZZ=         109027.2143 YYZZ=          -8878.1067
 XXYZ=          -3949.1275 YYXZ=          -2193.4946 ZZXY=         -15972.6283
 Leave Link  101 at Fri Jan  7 12:00:15 2022, MaxMem=   402653184 cpu:               8.2 elap:               1.4
 (Enter /work/01114/jfonner/frontera/gaussian/16rC.01/g16/l202.exe)
                          Input orientation:                          
 ---------------------------------------------------------------------
 Center     Atomic      Atomic             Coordinates (Angstroms)
 Number     Number       Type             X           Y           Z
 ---------------------------------------------------------------------
      1          6           0       -4.356992   -0.672999    2.587993
      2          8           0       -4.211992   -1.869995    2.491990
      3          7           0       -3.381001    0.124990    2.952998
      4          6           0       -2.062005   -0.390005    3.273999
      5          6           0       -1.636007    0.174996    4.600007
      6          8           0       -1.744008    1.356000    4.861991
      7          7           0       -1.095000   -0.700005    5.415005
      8          6           0       -0.571995   -0.311006    6.668998
      9          6           0       -0.992999   -0.045002    2.197002
     10          6           0        0.390000   -0.487990    2.640005
     11          6           0        0.840016   -0.854009    6.792003
     12          8           0        1.026999   -2.022001    6.720002
     13          7           0        1.810007    0.001989    7.023006
     14          6           0        3.190996   -0.428993    7.100995
     15          6           0       -1.410999   -0.912989    7.797008
     16          6           0       -0.727006   -0.644998    9.123012
     17          6           0       -2.799999   -0.349003    7.788996
     18          1           0       -5.305518   -0.201179    2.437709
     19          1           0       -1.269554   -0.488195    1.263194
     20          1           0        3.703144    0.059691    7.903362
     21          1           0        3.660730   -0.203801    6.166362
 ---------------------------------------------------------------------
                    Distance matrix (angstroms):
                    1          2          3          4          5
     1  C    0.000000
     2  O    1.209562   0.000000
     3  N    1.312469   2.209760   0.000000
     4  C    2.411982   2.724767   1.451900   0.000000
     5  C    3.488704   3.906587   2.400030   1.502996   0.000000
     6  O    4.014423   4.702647   2.799890   2.381465   1.214525
     7  N    4.316632   4.430409   3.459464   2.369620   1.312454
     8  C    5.577799   5.755642   4.678596   3.708421   2.376771
     9  C    3.444373   3.712079   2.510574   1.556189   2.497257
    10  C    4.750881   4.807304   3.833296   2.534536   2.895835
    11  C    6.686954   6.711566   5.789074   4.584034   3.463291
    12  O    6.919586   6.733960   6.183070   4.907167   4.051268
    13  N    7.626062   7.765237   6.597474   5.403812   4.216143
    14  C    8.797661   8.838758   7.791272   6.499341   5.469890
    15  C    5.989183   6.074919   5.331299   4.599449   3.384547
    16  C    7.475564   7.590533   6.760595   6.004848   4.685749
    17  C    5.438716   5.689061   4.893783   4.575097   3.434982
    18  H    1.070000   1.995918   2.018830   3.354909   4.275787
    19  H    3.364747   3.475234   2.773021   2.163552   3.421759
    20  H    9.682756   9.780389   8.642654   7.407439   6.279488
    21  H    8.792539   8.846296   7.747243   6.414836   5.536458
                    6          7          8          9         10
     6  O    0.000000
     7  N    2.225801   0.000000
     8  C    2.723564   1.413278   0.000000
     9  C    3.103061   3.285571   4.499640   0.000000
    10  C    3.590475   3.154489   4.146028   1.518281   0.000000
    11  C    3.909765   2.379943   1.517814   5.012831   4.192323
    12  O    4.747797   2.820208   2.342411   5.333522   4.405149
    13  N    4.374284   3.393749   2.428420   5.581162   4.633271
    14  C    5.705577   4.613651   3.789544   6.457741   5.267779
    15  C    3.724720   2.412294   1.529287   5.682271   5.478951
    16  C    4.816076   3.726629   2.481484   6.957037   6.580405
    17  C    3.548170   2.943817   2.493960   5.884562   6.058673
    18  H    4.581081   5.180885   6.349969   4.322054   5.706322
    19  H    4.071548   4.160873   5.453504   1.070000   2.156322
    20  H    6.371956   5.458136   4.465186   7.391026   6.243381
    21  H    5.774561   4.840220   4.263812   6.118679   4.818053
                   11         12         13         14         15
    11  C    0.000000
    12  O    1.185054   0.000000
    13  N    1.314145   2.191222   0.000000
    14  C    2.408987   2.713985   1.448778   0.000000
    15  C    2.465884   2.886812   3.436735   4.679428   0.000000
    16  C    2.816531   3.278281   3.356345   4.414289   1.515900
    17  C    3.807721   4.311332   4.686373   6.030900   1.499155
    18  H    7.560003   7.858384   8.467404   9.694786   6.663035
    19  H    5.928898   6.115838   6.549764   7.347103   6.549137
    20  H    3.204289   3.591035   2.088617   1.070000   5.206906
    21  H    2.961524   3.247909   2.049722   1.070000   5.374420
                   16         17         18         19         20
    16  C    0.000000
    17  C    2.482843   0.000000
    18  H    8.114988   5.910648   0.000000
    19  H    7.880082   6.704307   4.213178   0.000000
    20  H    4.648694   6.516976  10.540275   8.313827   0.000000
    21  H    5.309299   6.662960   9.710636   6.959140   1.757383
                   21
    21  H    0.000000
 Symmetry turned off by external request.
 Stoichiometry    C11H4N3O3(5+)
 Framework group  C1[X(C11H4N3O3)]
 Deg. of freedom    57
 Full point group                 C1      NOp   1
 Rotational constants (GHZ):           0.8216256           0.2961429           0.2484544
 Leave Link  202 at Fri Jan  7 12:00:15 2022, MaxMem=   402653184 cpu:               2.8 elap:               0.5
 (Enter /work/01114/jfonner/frontera/gaussian/16rC.01/g16/l301.exe)
 Standard basis: VSTO-6G (5D, 7F)
 Ernie: Thresh=  0.10000D-02 Tol=  0.10000D-05 Strict=F.
  NNHCO=     0 NNPyr=     0 NCTC=     0               EPep=         0.000000000
    EC=       448.336978095  ECS=         4.935141636   EG=         0.490634019
   EHC=         0.001821191  EAt=       -99.165889435  AtH=         4.152726145
 EPDDG=         0.000000000  ECC=       453.764574941 EAtT=       103.318615580
    72 basis functions,   432 primitive gaussians,    72 cartesian basis functions
    38 alpha electrons       38 beta electrons
       nuclear repulsion energy       557.0831905212 Hartrees.
 IExCor=    0 DFT=F Ex=HF Corr=None ExCW=0 ScaHFX=  1.000000
 ScaDFX=  1.000000  1.000000  1.000000  1.000000 ScalE2=  1.000000  1.000000
 IRadAn=      5 IRanWt=     -1 IRanGd=            0 ICorTp=0 IEmpDi=  4
 Integral buffers will be    131072 words long.
 Regular integral format.
 Two-electron integral symmetry is turned off.
 Background charge distribution read from rwf.
 PtFMM for NChg=        70 BoxLen=    40.00 Levels= 1 LMax=20 SMax=    51.8 ICnFMM=     1:
 Self energy of the charges =        -2.3980107490 a.u.
 MM   energy of the charges =         0.0000000000 a.u.
 Nuclei-charges interaction =        11.5509501512 a.u.
 Nuclear repulsion after external point charges =      566.2361299234 Hartrees.
 Leave Link  301 at Fri Jan  7 12:00:16 2022, MaxMem=   402653184 cpu:               4.4 elap:               0.8
 (Enter /work/01114/jfonner/frontera/gaussian/16rC.01/g16/l302.exe)
 Do NDO integrals.
 NPDir=0 NMtPBC=     1 NCelOv=     1 NCel=       1 NClECP=     1 NCelD=      1
         NCelK=      1 NCelE2=     1 NClLst=     1 CellRange=     0.0.
 One-electron integrals computed using PRISM.
 NBasis=    72 RedAO= F EigKep=  0.00D+00  NBF=    72
 NBsUse=    72 1.00D-04 EigRej=  0.00D+00 NBFU=    72
 Leave Link  302 at Fri Jan  7 12:00:19 2022, MaxMem=   402653184 cpu:              19.9 elap:               3.6
 (Enter /work/01114/jfonner/frontera/gaussian/16rC.01/g16/l303.exe)
 DipDrv:  MaxL=1.
 Leave Link  303 at Fri Jan  7 12:00:20 2022, MaxMem=   402653184 cpu:               3.2 elap:               0.6
 (Enter /work/01114/jfonner/frontera/gaussian/16rC.01/g16/l401.exe)
 Simple Huckel Guess.
 JPrj=0 DoOrth=F DoCkMO=F.
 Leave Link  401 at Fri Jan  7 12:00:22 2022, MaxMem=   402653184 cpu:              13.7 elap:               2.2
 (Enter /work/01114/jfonner/frontera/gaussian/16rC.01/g16/l502.exe)
 Keep J ints in memory in canonical form, NReq=875322.
 FoFCou: FMM=F IPFlag=           0 FMFlag=           0 FMFlg1=           0
         NFxFlg=           0 DoJE=F BraDBF=F KetDBF=F FulRan=T
         wScrn=  0.000000 ICntrl=       600 IOpCl=  2 I1Cent=           0 NGrid=           0
         NMat0=    1 NMatS0=    174 NMatT0=    0 NMatD0=    1 NMtDS0=    0 NMtDT0=    0
 Symmetry not used in FoFCou.
 Two-electron integral symmetry not used.
 Closed shell SCF:
 Using DIIS extrapolation, IDIIS=  1040.
 Overlap will be assumed to be unity.
 NGot=   402653184 LenX=   402563065 LenY=   402557440
 Requested convergence on RMS density matrix=1.00D-08 within 128 cycles.
 Requested convergence on MAX density matrix=1.00D-06.
 Requested convergence on             energy=1.00D-06.
 No special actions if energy rises.

 Cycle   1  Pass 1  IDiag  1:
 E=  4.75756798648240    
 DIIS: error= 5.14D-02 at cycle   1 NSaved=   1.
 NSaved= 1 IEnMin= 1 EnMin=  4.75756798648240     IErMin= 1 ErrMin= 5.14D-02
 ErrMax= 5.14D-02  0.00D+00 EMaxC= 1.00D-01 BMatC= 3.66D-01 BMatP= 3.66D-01
 IDIUse=3 WtCom= 4.86D-01 WtEn= 5.14D-01
 Coeff-Com:  0.100D+01
 Coeff-En:   0.100D+01
 Coeff:      0.100D+01
 GapD=    2.000 DampG=2.000 DampE=0.500 DampFc=1.0000 IDamp=-1.
 RMSDP=3.58D-02 MaxDP=8.07D-01              OVMax= 0.00D+00

 Cycle   2  Pass 1  IDiag  1:
 E=  4.93387897291200     Delta-E=        0.176310986430 Rises=F Damp=F
 DIIS: error= 6.19D-02 at cycle   2 NSaved=   2.
 NSaved= 2 IEnMin= 1 EnMin=  4.75756798648240     IErMin= 1 ErrMin= 5.14D-02
 ErrMax= 6.19D-02  0.00D+00 EMaxC= 1.00D-01 BMatC= 5.24D-01 BMatP= 3.66D-01
 IDIUse=2 WtCom= 0.00D+00 WtEn= 1.00D+00
 Coeff-En:   0.547D+00 0.453D+00
 Coeff:      0.547D+00 0.453D+00
 RMSDP=2.84D-02 MaxDP=7.97D-01 DE= 1.76D-01 OVMax= 0.00D+00

 Cycle   3  Pass 1  IDiag  1:
 E=  3.41687468927444     Delta-E=       -1.517004283638 Rises=F Damp=F
 DIIS: error= 1.97D-02 at cycle   3 NSaved=   3.
 NSaved= 3 IEnMin= 3 EnMin=  3.41687468927444     IErMin= 3 ErrMin= 1.97D-02
 ErrMax= 1.97D-02  0.00D+00 EMaxC= 1.00D-01 BMatC= 6.91D-02 BMatP= 3.66D-01
 IDIUse=3 WtCom= 8.03D-01 WtEn= 1.97D-01
 Coeff-Com: -0.345D-01 0.169D+00 0.866D+00
 Coeff-En:   0.000D+00 0.692D-01 0.931D+00
 Coeff:     -0.277D-01 0.149D+00 0.879D+00
 RMSDP=2.64D-02 MaxDP=7.70D-01 DE=-1.52D+00 OVMax= 0.00D+00

 Cycle   4  Pass 1  IDiag  3:
 E=  3.87790576710483     Delta-E=        0.461031077830 Rises=F Damp=F
 DIIS: error= 2.97D-02 at cycle   4 NSaved=   4.
 NSaved= 4 IEnMin= 3 EnMin=  3.41687468927444     IErMin= 3 ErrMin= 1.97D-02
 ErrMax= 2.97D-02  0.00D+00 EMaxC= 1.00D-01 BMatC= 1.19D-01 BMatP= 6.91D-02
 IDIUse=2 WtCom= 0.00D+00 WtEn= 1.00D+00
 Coeff-En:   0.000D+00 0.000D+00 0.659D+00 0.341D+00
 Coeff:      0.000D+00 0.000D+00 0.659D+00 0.341D+00
 Gap=     0.151 Goal=   None    Shift=    0.000
 RMSDP=9.81D-03 MaxDP=1.79D-01 DE= 4.61D-01 OVMax= 3.75D-01

 Cycle   5  Pass 1  IDiag  1:
 E=  3.42073939743682     Delta-E=       -0.457166369668 Rises=F Damp=F
 DIIS: error= 3.04D-02 at cycle   5 NSaved=   5.
 NSaved= 5 IEnMin= 3 EnMin=  3.41687468927444     IErMin= 3 ErrMin= 1.97D-02
 ErrMax= 3.04D-02  0.00D+00 EMaxC= 1.00D-01 BMatC= 6.59D-02 BMatP= 6.91D-02
 IDIUse=3 WtCom= 6.96D-01 WtEn= 3.04D-01
 Coeff-Com: -0.992D-01-0.227D-01 0.587D+00 0.733D-01 0.461D+00
 Coeff-En:   0.000D+00 0.000D+00 0.502D+00 0.000D+00 0.498D+00
 Coeff:     -0.691D-01-0.158D-01 0.561D+00 0.511D-01 0.472D+00
 RMSDP=2.19D-02 MaxDP=7.21D-01 DE=-4.57D-01 OVMax= 3.75D-01

 Cycle   6  Pass 1  IDiag  1:
 E=  3.22937946275135     Delta-E=       -0.191359934685 Rises=F Damp=F
 DIIS: error= 2.02D-02 at cycle   6 NSaved=   6.
 NSaved= 6 IEnMin= 6 EnMin=  3.22937946275135     IErMin= 3 ErrMin= 1.97D-02
 ErrMax= 2.02D-02  0.00D+00 EMaxC= 1.00D-01 BMatC= 4.04D-02 BMatP= 6.59D-02
 IDIUse=3 WtCom= 7.98D-01 WtEn= 2.02D-01
 Coeff-Com:  0.351D-02-0.429D-01-0.748D-02 0.362D-01 0.433D+00 0.578D+00
 Coeff-En:   0.000D+00 0.000D+00 0.000D+00 0.000D+00 0.385D+00 0.615D+00
 Coeff:      0.280D-02-0.342D-01-0.597D-02 0.289D-01 0.423D+00 0.585D+00
 RMSDP=7.26D-03 MaxDP=1.10D-01 DE=-1.91D-01 OVMax= 3.75D-01

 Cycle   7  Pass 1  IDiag  1:
 E=  3.04667906134478     Delta-E=       -0.182700401407 Rises=F Damp=F
 DIIS: error= 1.19D-02 at cycle   7 NSaved=   7.
 NSaved= 7 IEnMin= 7 EnMin=  3.04667906134478     IErMin= 7 ErrMin= 1.19D-02
 ErrMax= 1.19D-02  0.00D+00 EMaxC= 1.00D-01 BMatC= 1.24D-02 BMatP= 4.04D-02
 IDIUse=3 WtCom= 8.81D-01 WtEn= 1.19D-01
 Coeff-Com: -0.187D-01-0.187D-01 0.754D-01 0.201D-01 0.230D+00-0.278D+00
 Coeff-Com:  0.989D+00
 Coeff-En:   0.000D+00 0.000D+00 0.000D+00 0.000D+00 0.888D-01 0.000D+00
 Coeff-En:   0.911D+00
 Coeff:     -0.165D-01-0.165D-01 0.665D-01 0.177D-01 0.213D+00-0.245D+00
 Coeff:      0.980D+00
 RMSDP=4.71D-03 MaxDP=7.44D-02 DE=-1.83D-01 OVMax= 3.75D-01

 Cycle   8  Pass 1  IDiag  3:
 E=  2.98504486025854     Delta-E=       -0.061634201086 Rises=F Damp=F
 DIIS: error= 7.23D-03 at cycle   8 NSaved=   8.
 NSaved= 8 IEnMin= 8 EnMin=  2.98504486025854     IErMin= 8 ErrMin= 7.23D-03
 ErrMax= 7.23D-03  0.00D+00 EMaxC= 1.00D-01 BMatC= 4.19D-03 BMatP= 1.24D-02
 IDIUse=3 WtCom= 9.28D-01 WtEn= 7.23D-02
 Coeff-Com: -0.183D-01-0.180D-01 0.101D+00 0.227D-01 0.846D-01-0.104D+00
 Coeff-Com: -0.516D+00 0.145D+01
 Coeff-En:   0.000D+00 0.000D+00 0.000D+00 0.000D+00 0.000D+00 0.000D+00
 Coeff-En:   0.000D+00 0.100D+01
 Coeff:     -0.170D-01-0.167D-01 0.934D-01 0.211D-01 0.785D-01-0.968D-01
 Coeff:     -0.478D+00 0.142D+01
 Gap=     0.117 Goal=   None    Shift=    0.000
 RMSDP=5.34D-03 MaxDP=6.23D-02 DE=-6.16D-02 OVMax= 2.27D-01

 Cycle   9  Pass 1  IDiag  3:
 E=  2.94690188068353     Delta-E=       -0.038142979575 Rises=F Damp=F
 DIIS: error= 4.26D-03 at cycle   9 NSaved=   9.
 NSaved= 9 IEnMin= 9 EnMin=  2.94690188068353     IErMin= 9 ErrMin= 4.26D-03
 ErrMax= 4.26D-03  0.00D+00 EMaxC= 1.00D-01 BMatC= 1.19D-03 BMatP= 4.19D-03
 IDIUse=3 WtCom= 9.57D-01 WtEn= 4.26D-02
 Coeff-Com: -0.235D-02-0.131D-01 0.108D-01 0.276D-01 0.486D-01 0.240D-01
 Coeff-Com:  0.313D+00-0.929D+00 0.152D+01
 Coeff-En:   0.000D+00 0.000D+00 0.000D+00 0.000D+00 0.000D+00 0.000D+00
 Coeff-En:   0.000D+00 0.000D+00 0.100D+01
 Coeff:     -0.225D-02-0.126D-01 0.103D-01 0.264D-01 0.465D-01 0.230D-01
 Coeff:      0.300D+00-0.890D+00 0.150D+01
 Gap=     0.127 Goal=   None    Shift=    0.000
 RMSDP=3.27D-03 MaxDP=4.34D-02 DE=-3.81D-02 OVMax= 1.29D-01

 Cycle  10  Pass 1  IDiag  3:
 E=  2.93329968862508     Delta-E=       -0.013602192058 Rises=F Damp=F
 DIIS: error= 2.57D-03 at cycle  10 NSaved=  10.
 NSaved=10 IEnMin=10 EnMin=  2.93329968862508     IErMin=10 ErrMin= 2.57D-03
 ErrMax= 2.57D-03  0.00D+00 EMaxC= 1.00D-01 BMatC= 3.74D-04 BMatP= 1.19D-03
 IDIUse=3 WtCom= 9.74D-01 WtEn= 2.57D-02
 Coeff-Com: -0.454D-02-0.348D-02 0.908D-02-0.672D-02 0.264D-01 0.573D-02
 Coeff-Com: -0.133D+00 0.539D+00-0.139D+01 0.196D+01
 Coeff-En:   0.000D+00 0.000D+00 0.000D+00 0.000D+00 0.000D+00 0.000D+00
 Coeff-En:   0.000D+00 0.000D+00 0.000D+00 0.100D+01
 Coeff:     -0.443D-02-0.339D-02 0.885D-02-0.655D-02 0.257D-01 0.558D-02
 Coeff:     -0.130D+00 0.525D+00-0.136D+01 0.194D+01
 Gap=     0.152 Goal=   None    Shift=    0.000
 RMSDP=2.37D-03 MaxDP=3.71D-02 DE=-1.36D-02 OVMax= 7.77D-02

 Cycle  11  Pass 1  IDiag  3:
 E=  2.92740401512378     Delta-E=       -0.005895673501 Rises=F Damp=F
 DIIS: error= 1.13D-03 at cycle  11 NSaved=  11.
 NSaved=11 IEnMin=11 EnMin=  2.92740401512378     IErMin=11 ErrMin= 1.13D-03
 ErrMax= 1.13D-03  0.00D+00 EMaxC= 1.00D-01 BMatC= 9.11D-05 BMatP= 3.74D-04
 IDIUse=3 WtCom= 9.89D-01 WtEn= 1.13D-02
 Coeff-Com: -0.207D-03-0.722D-03 0.247D-02-0.804D-02 0.116D-01 0.179D-01
 Coeff-Com: -0.658D-01 0.295D-01 0.198D+00-0.744D+00 0.156D+01
 Coeff-En:   0.000D+00 0.000D+00 0.000D+00 0.000D+00 0.000D+00 0.000D+00
 Coeff-En:   0.000D+00 0.000D+00 0.000D+00 0.000D+00 0.100D+01
 Coeff:     -0.204D-03-0.713D-03 0.244D-02-0.795D-02 0.115D-01 0.177D-01
 Coeff:     -0.650D-01 0.292D-01 0.195D+00-0.736D+00 0.155D+01
 Gap=     0.165 Goal=   None    Shift=    0.000
 RMSDP=1.39D-03 MaxDP=2.08D-02 DE=-5.90D-03 OVMax= 4.10D-02

 Cycle  12  Pass 1  IDiag  3:
 E=  2.92542862371215     Delta-E=       -0.001975391412 Rises=F Damp=F
 DIIS: error= 6.23D-04 at cycle  12 NSaved=  12.
 NSaved=12 IEnMin=12 EnMin=  2.92542862371215     IErMin=12 ErrMin= 6.23D-04
 ErrMax= 6.23D-04  0.00D+00 EMaxC= 1.00D-01 BMatC= 3.70D-05 BMatP= 9.11D-05
 IDIUse=3 WtCom= 9.94D-01 WtEn= 6.23D-03
 Coeff-Com: -0.687D-03-0.624D-03 0.110D-02-0.150D-02 0.879D-02-0.131D-01
 Coeff-Com:  0.706D-01-0.135D+00 0.251D+00-0.173D+00-0.635D+00 0.163D+01
 Coeff-En:   0.000D+00 0.000D+00 0.000D+00 0.000D+00 0.000D+00 0.000D+00
 Coeff-En:   0.000D+00 0.000D+00 0.000D+00 0.000D+00 0.000D+00 0.100D+01
 Coeff:     -0.683D-03-0.620D-03 0.109D-02-0.150D-02 0.873D-02-0.130D-01
 Coeff:      0.702D-01-0.134D+00 0.250D+00-0.172D+00-0.631D+00 0.162D+01
 Gap=     0.168 Goal=   None    Shift=    0.000
 RMSDP=1.02D-03 MaxDP=1.33D-02 DE=-1.98D-03 OVMax= 2.59D-02

 Cycle  13  Pass 1  IDiag  3:
 E=  2.92445472792440     Delta-E=       -0.000973895788 Rises=F Damp=F
 DIIS: error= 5.97D-04 at cycle  13 NSaved=  13.
 NSaved=13 IEnMin=13 EnMin=  2.92445472792440     IErMin=13 ErrMin= 5.97D-04
 ErrMax= 5.97D-04  0.00D+00 EMaxC= 1.00D-01 BMatC= 1.93D-05 BMatP= 3.70D-05
 IDIUse=3 WtCom= 9.94D-01 WtEn= 5.97D-03
 Coeff-Com: -0.894D-03-0.252D-03 0.376D-02 0.126D-02 0.133D-02-0.125D-01
 Coeff-Com:  0.308D-02 0.731D-01-0.228D+00 0.259D+00-0.185D+00-0.622D+00
 Coeff-Com:  0.171D+01
 Coeff-En:   0.000D+00 0.000D+00 0.000D+00 0.000D+00 0.000D+00 0.000D+00
 Coeff-En:   0.000D+00 0.000D+00 0.000D+00 0.000D+00 0.000D+00 0.000D+00
 Coeff-En:   0.100D+01
 Coeff:     -0.889D-03-0.251D-03 0.374D-02 0.125D-02 0.132D-02-0.124D-01
 Coeff:      0.306D-02 0.727D-01-0.226D+00 0.257D+00-0.184D+00-0.618D+00
 Coeff:      0.170D+01
 Gap=     0.173 Goal=   None    Shift=    0.000
 RMSDP=1.08D-03 MaxDP=1.40D-02 DE=-9.74D-04 OVMax= 3.22D-02

 Cycle  14  Pass 1  IDiag  3:
 E=  2.92373125736458     Delta-E=       -0.000723470560 Rises=F Damp=F
 DIIS: error= 5.26D-04 at cycle  14 NSaved=  14.
 NSaved=14 IEnMin=14 EnMin=  2.92373125736458     IErMin=14 ErrMin= 5.26D-04
 ErrMax= 5.26D-04  0.00D+00 EMaxC= 1.00D-01 BMatC= 1.20D-05 BMatP= 1.93D-05
 IDIUse=3 WtCom= 9.95D-01 WtEn= 5.26D-03
 Coeff-Com: -0.823D-04-0.294D-03-0.370D-03 0.101D-02 0.151D-02-0.769D-02
 Coeff-Com:  0.302D-01-0.375D-01 0.357D-01-0.322D-01 0.179D+00-0.329D+00
 Coeff-Com: -0.237D+00 0.140D+01
 Coeff-En:   0.000D+00 0.000D+00 0.000D+00 0.000D+00 0.000D+00 0.000D+00
 Coeff-En:   0.000D+00 0.000D+00 0.000D+00 0.000D+00 0.000D+00 0.000D+00
 Coeff-En:   0.000D+00 0.100D+01
 Coeff:     -0.819D-04-0.292D-03-0.369D-03 0.100D-02 0.150D-02-0.765D-02
 Coeff:      0.301D-01-0.373D-01 0.355D-01-0.320D-01 0.178D+00-0.328D+00
 Coeff:     -0.236D+00 0.140D+01
 Gap=     0.174 Goal=   None    Shift=    0.000
 RMSDP=6.39D-04 MaxDP=9.78D-03 DE=-7.23D-04 OVMax= 2.46D-02

 Cycle  15  Pass 1  IDiag  3:
 E=  2.92337420054537     Delta-E=       -0.000357056819 Rises=F Damp=F
 DIIS: error= 5.10D-04 at cycle  15 NSaved=  15.
 NSaved=15 IEnMin=15 EnMin=  2.92337420054537     IErMin=15 ErrMin= 5.10D-04
 ErrMax= 5.10D-04  0.00D+00 EMaxC= 1.00D-01 BMatC= 8.54D-06 BMatP= 1.20D-05
 IDIUse=3 WtCom= 9.95D-01 WtEn= 5.10D-03
 Coeff-Com:  0.248D-04-0.254D-03 0.290D-03-0.759D-03 0.103D-02-0.515D-02
 Coeff-Com:  0.217D-01-0.342D-01 0.515D-01-0.866D-01 0.118D+00 0.759D-02
 Coeff-Com: -0.264D+00-0.449D+00 0.164D+01
 Coeff-En:   0.000D+00 0.000D+00 0.000D+00 0.000D+00 0.000D+00 0.000D+00
 Coeff-En:   0.000D+00 0.000D+00 0.000D+00 0.000D+00 0.000D+00 0.000D+00
 Coeff-En:   0.000D+00 0.000D+00 0.100D+01
 Coeff:      0.246D-04-0.253D-03 0.288D-03-0.755D-03 0.103D-02-0.513D-02
 Coeff:      0.216D-01-0.341D-01 0.512D-01-0.861D-01 0.117D+00 0.755D-02
 Coeff:     -0.263D+00-0.447D+00 0.164D+01
 Gap=     0.177 Goal=   None    Shift=    0.000
 RMSDP=7.21D-04 MaxDP=1.26D-02 DE=-3.57D-04 OVMax= 2.97D-02

 Cycle  16  Pass 1  IDiag  3:
 E=  2.92303173994173     Delta-E=       -0.000342460604 Rises=F Damp=F
 DIIS: error= 4.37D-04 at cycle  16 NSaved=  16.
 NSaved=16 IEnMin=16 EnMin=  2.92303173994173     IErMin=16 ErrMin= 4.37D-04
 ErrMax= 4.37D-04  0.00D+00 EMaxC= 1.00D-01 BMatC= 7.16D-06 BMatP= 8.54D-06
 IDIUse=3 WtCom= 9.96D-01 WtEn= 4.37D-03
 Coeff-Com: -0.118D-03-0.371D-03 0.121D-02-0.126D-02 0.101D-02-0.518D-02
 Coeff-Com:  0.180D-01-0.222D-01 0.112D-01-0.133D-01 0.601D-01-0.178D+00
 Coeff-Com:  0.318D+00-0.464D+00-0.156D+00 0.143D+01
 Coeff-En:   0.000D+00 0.000D+00 0.000D+00 0.000D+00 0.000D+00 0.000D+00
 Coeff-En:   0.000D+00 0.000D+00 0.000D+00 0.000D+00 0.000D+00 0.000D+00
 Coeff-En:   0.000D+00 0.000D+00 0.000D+00 0.100D+01
 Coeff:     -0.118D-03-0.370D-03 0.121D-02-0.125D-02 0.101D-02-0.516D-02
 Coeff:      0.179D-01-0.221D-01 0.111D-01-0.133D-01 0.599D-01-0.177D+00
 Coeff:      0.317D+00-0.462D+00-0.156D+00 0.143D+01
 Gap=     0.179 Goal=   None    Shift=    0.000
 RMSDP=5.68D-04 MaxDP=1.12D-02 DE=-3.42D-04 OVMax= 2.53D-02

 Cycle  17  Pass 1  IDiag  3:
 E=  2.92278862795797     Delta-E=       -0.000243111984 Rises=F Damp=F
 DIIS: error= 3.98D-04 at cycle  17 NSaved=  17.
 NSaved=17 IEnMin=17 EnMin=  2.92278862795797     IErMin=17 ErrMin= 3.98D-04
 ErrMax= 3.98D-04  0.00D+00 EMaxC= 1.00D-01 BMatC= 5.60D-06 BMatP= 7.16D-06
 IDIUse=3 WtCom= 9.96D-01 WtEn= 3.98D-03
 Coeff-Com: -0.130D-04-0.361D-03 0.107D-02-0.115D-02 0.628D-03-0.350D-02
 Coeff-Com:  0.135D-01-0.192D-01 0.105D-01-0.133D-01 0.733D-01-0.224D+00
 Coeff-Com:  0.320D+00-0.517D-01-0.577D+00-0.217D+00 0.169D+01
 Coeff-En:   0.000D+00 0.000D+00 0.000D+00 0.000D+00 0.000D+00 0.000D+00
 Coeff-En:   0.000D+00 0.000D+00 0.000D+00 0.000D+00 0.000D+00 0.000D+00
 Coeff-En:   0.000D+00 0.000D+00 0.000D+00 0.000D+00 0.100D+01
 Coeff:     -0.130D-04-0.359D-03 0.106D-02-0.115D-02 0.625D-03-0.348D-02
 Coeff:      0.134D-01-0.191D-01 0.105D-01-0.133D-01 0.730D-01-0.224D+00
 Coeff:      0.319D+00-0.515D-01-0.575D+00-0.216D+00 0.169D+01
 Gap=     0.182 Goal=   None    Shift=    0.000
 RMSDP=7.50D-04 MaxDP=1.57D-02 DE=-2.43D-04 OVMax= 3.38D-02

 Cycle  18  Pass 1  IDiag  3:
 E=  2.92252570459902     Delta-E=       -0.000262923359 Rises=F Damp=F
 DIIS: error= 3.26D-04 at cycle  18 NSaved=  18.
 NSaved=18 IEnMin=18 EnMin=  2.92252570459902     IErMin=18 ErrMin= 3.26D-04
 ErrMax= 3.26D-04  0.00D+00 EMaxC= 1.00D-01 BMatC= 4.61D-06 BMatP= 5.60D-06
 IDIUse=3 WtCom= 9.97D-01 WtEn= 3.26D-03
 Coeff-Com: -0.186D-04-0.275D-03 0.679D-03-0.565D-03 0.225D-03-0.306D-02
 Coeff-Com:  0.163D-01-0.282D-01 0.209D-01-0.230D-01 0.658D-01-0.160D+00
 Coeff-Com:  0.187D+00-0.116D+00 0.295D+00-0.806D+00 0.220D+00 0.133D+01
 Coeff-En:   0.000D+00 0.000D+00 0.000D+00 0.000D+00 0.000D+00 0.000D+00
 Coeff-En:   0.000D+00 0.000D+00 0.000D+00 0.000D+00 0.000D+00 0.000D+00
 Coeff-En:   0.000D+00 0.000D+00 0.000D+00 0.000D+00 0.000D+00 0.100D+01
 Coeff:     -0.185D-04-0.274D-03 0.677D-03-0.564D-03 0.224D-03-0.305D-02
 Coeff:      0.163D-01-0.281D-01 0.208D-01-0.229D-01 0.656D-01-0.160D+00
 Coeff:      0.187D+00-0.115D+00 0.294D+00-0.803D+00 0.220D+00 0.133D+01
 Gap=     0.184 Goal=   None    Shift=    0.000
 RMSDP=5.12D-04 MaxDP=1.11D-02 DE=-2.63D-04 OVMax= 2.36D-02

 Cycle  19  Pass 1  IDiag  3:
 E=  2.92237351555423     Delta-E=       -0.000152189045 Rises=F Damp=F
 DIIS: error= 2.57D-04 at cycle  19 NSaved=  19.
 NSaved=19 IEnMin=19 EnMin=  2.92237351555423     IErMin=19 ErrMin= 2.57D-04
 ErrMax= 2.57D-04  0.00D+00 EMaxC= 1.00D-01 BMatC= 2.82D-06 BMatP= 4.61D-06
 IDIUse=3 WtCom= 9.97D-01 WtEn= 2.57D-03
 Coeff-Com:  0.929D-05-0.170D-03 0.364D-03 0.593D-04-0.566D-04-0.105D-02
 Coeff-Com:  0.636D-02-0.118D-01 0.625D-02-0.112D-01 0.457D-01-0.118D+00
 Coeff-Com:  0.157D+00-0.903D-01 0.190D+00-0.250D+00-0.596D+00 0.333D-01
 Coeff-Com:  0.164D+01
 Coeff-En:   0.000D+00 0.000D+00 0.000D+00 0.000D+00 0.000D+00 0.000D+00
 Coeff-En:   0.000D+00 0.000D+00 0.000D+00 0.000D+00 0.000D+00 0.000D+00
 Coeff-En:   0.000D+00 0.000D+00 0.000D+00 0.000D+00 0.000D+00 0.000D+00
 Coeff-En:   0.100D+01
 Coeff:      0.927D-05-0.169D-03 0.363D-03 0.591D-04-0.564D-04-0.105D-02
 Coeff:      0.634D-02-0.117D-01 0.624D-02-0.112D-01 0.456D-01-0.118D+00
 Coeff:      0.157D+00-0.901D-01 0.190D+00-0.249D+00-0.594D+00 0.332D-01
 Coeff:      0.164D+01
 Gap=     0.187 Goal=   None    Shift=    0.000
 RMSDP=7.98D-04 MaxDP=1.81D-02 DE=-1.52D-04 OVMax= 3.67D-02

 Cycle  20  Pass 1  IDiag  3:
 E=  2.92221686775088     Delta-E=       -0.000156647803 Rises=F Damp=F
 DIIS: error= 1.68D-04 at cycle  20 NSaved=  20.
 NSaved=20 IEnMin=20 EnMin=  2.92221686775088     IErMin=20 ErrMin= 1.68D-04
 ErrMax= 1.68D-04  0.00D+00 EMaxC= 1.00D-01 BMatC= 2.34D-06 BMatP= 2.82D-06
 IDIUse=3 WtCom= 9.98D-01 WtEn= 1.68D-03
 Coeff-Com:  0.193D-05-0.165D-03 0.330D-03 0.365D-03-0.170D-03-0.137D-02
 Coeff-Com:  0.664D-02-0.115D-01 0.559D-02-0.133D-01 0.501D-01-0.112D+00
 Coeff-Com:  0.130D+00-0.132D+00 0.296D+00-0.287D+00 0.218D-01-0.461D+00
 Coeff-Com:  0.701D+00 0.807D+00
 Coeff-En:   0.000D+00 0.000D+00 0.000D+00 0.000D+00 0.000D+00 0.000D+00
 Coeff-En:   0.000D+00 0.000D+00 0.000D+00 0.000D+00 0.000D+00 0.000D+00
 Coeff-En:   0.000D+00 0.000D+00 0.000D+00 0.000D+00 0.000D+00 0.000D+00
 Coeff-En:   0.000D+00 0.100D+01
 Coeff:      0.193D-05-0.165D-03 0.330D-03 0.364D-03-0.170D-03-0.137D-02
 Coeff:      0.663D-02-0.115D-01 0.558D-02-0.133D-01 0.500D-01-0.112D+00
 Coeff:      0.129D+00-0.132D+00 0.296D+00-0.287D+00 0.218D-01-0.460D+00
 Coeff:      0.699D+00 0.808D+00
 Gap=     0.187 Goal=   None    Shift=    0.000
 RMSDP=1.49D-04 MaxDP=2.52D-03 DE=-1.57D-04 OVMax= 5.69D-03

 Cycle  21  Pass 1  IDiag  3:
 E=  2.92218767103520     Delta-E=       -0.000029196716 Rises=F Damp=F
 DIIS: error= 1.21D-04 at cycle  21 NSaved=  20.
 NSaved=20 IEnMin=20 EnMin=  2.92218767103520     IErMin=20 ErrMin= 1.21D-04
 ErrMax= 1.21D-04  0.00D+00 EMaxC= 1.00D-01 BMatC= 7.69D-07 BMatP= 2.34D-06
 IDIUse=3 WtCom= 9.99D-01 WtEn= 1.21D-03
 Coeff-Com:  0.893D-04-0.696D-05 0.359D-03-0.274D-03 0.537D-03-0.418D-02
 Coeff-Com:  0.299D-02 0.103D-01-0.276D-01 0.248D-01 0.118D-01-0.334D-01
 Coeff-Com:  0.735D-01-0.144D+00 0.159D+00-0.142D-01-0.463D-01-0.640D+00
 Coeff-Com: -0.278D-03 0.163D+01
 Coeff-En:   0.000D+00 0.000D+00 0.000D+00 0.000D+00 0.000D+00 0.000D+00
 Coeff-En:   0.000D+00 0.000D+00 0.000D+00 0.000D+00 0.000D+00 0.000D+00
 Coeff-En:   0.000D+00 0.000D+00 0.000D+00 0.000D+00 0.000D+00 0.000D+00
 Coeff-En:   0.000D+00 0.100D+01
 Coeff:      0.892D-04-0.695D-05 0.358D-03-0.274D-03 0.536D-03-0.417D-02
 Coeff:      0.298D-02 0.103D-01-0.275D-01 0.248D-01 0.118D-01-0.334D-01
 Coeff:      0.734D-01-0.144D+00 0.159D+00-0.142D-01-0.463D-01-0.639D+00
 Coeff:     -0.278D-03 0.163D+01
 Gap=     0.188 Goal=   None    Shift=    0.000
 RMSDP=5.29D-04 MaxDP=1.22D-02 DE=-2.92D-05 OVMax= 2.40D-02

 Cycle  22  Pass 1  IDiag  3:
 E=  2.92213902339802     Delta-E=       -0.000048647637 Rises=F Damp=F
 DIIS: error= 5.71D-05 at cycle  22 NSaved=  20.
 NSaved=20 IEnMin=20 EnMin=  2.92213902339802     IErMin=20 ErrMin= 5.71D-05
 ErrMax= 5.71D-05  0.00D+00 EMaxC= 1.00D-01 BMatC= 5.59D-07 BMatP= 7.69D-07
 IDIUse=1 WtCom= 1.00D+00 WtEn= 0.00D+00
 Coeff-Com:  0.173D-03 0.330D-03-0.121D-03 0.371D-03-0.426D-02 0.500D-02
 Coeff-Com:  0.338D-02-0.148D-01 0.145D-01 0.197D-03 0.179D-02 0.356D-01
 Coeff-Com: -0.116D+00 0.109D+00 0.258D-01-0.297D-01-0.290D+00-0.260D+00
 Coeff-Com:  0.833D+00 0.686D+00
 Coeff:      0.173D-03 0.330D-03-0.121D-03 0.371D-03-0.426D-02 0.500D-02
 Coeff:      0.338D-02-0.148D-01 0.145D-01 0.197D-03 0.179D-02 0.356D-01
 Coeff:     -0.116D+00 0.109D+00 0.258D-01-0.297D-01-0.290D+00-0.260D+00
 Coeff:      0.833D+00 0.686D+00
 Gap=     0.188 Goal=   None    Shift=    0.000
 RMSDP=7.83D-05 MaxDP=1.13D-03 DE=-4.86D-05 OVMax= 2.57D-03

 Cycle  23  Pass 1  IDiag  3:
 E=  2.92213215257198     Delta-E=       -0.000006870826 Rises=F Damp=F
 DIIS: error= 4.73D-05 at cycle  23 NSaved=  20.
 NSaved=20 IEnMin=20 EnMin=  2.92213215257198     IErMin=20 ErrMin= 4.73D-05
 ErrMax= 4.73D-05  0.00D+00 EMaxC= 1.00D-01 BMatC= 1.73D-07 BMatP= 5.59D-07
 IDIUse=1 WtCom= 1.00D+00 WtEn= 0.00D+00
 Coeff-Com:  0.789D-04 0.701D-04-0.656D-03 0.851D-04 0.111D-02-0.235D-03
 Coeff-Com: -0.193D-02-0.426D-02 0.186D-01-0.214D-01-0.337D-01 0.896D-01
 Coeff-Com: -0.675D-01 0.400D-01-0.516D-02 0.206D+00 0.103D+00-0.978D+00
 Coeff-Com: -0.260D+00 0.191D+01
 Coeff:      0.789D-04 0.701D-04-0.656D-03 0.851D-04 0.111D-02-0.235D-03
 Coeff:     -0.193D-02-0.426D-02 0.186D-01-0.214D-01-0.337D-01 0.896D-01
 Coeff:     -0.675D-01 0.400D-01-0.516D-02 0.206D+00 0.103D+00-0.978D+00
 Coeff:     -0.260D+00 0.191D+01
 Gap=     0.188 Goal=   None    Shift=    0.000
 RMSDP=1.87D-04 MaxDP=4.01D-03 DE=-6.87D-06 OVMax= 7.38D-03

 Cycle  24  Pass 1  IDiag  3:
 E=  2.92212492767385     Delta-E=       -0.000007224898 Rises=F Damp=F
 DIIS: error= 2.53D-05 at cycle  24 NSaved=  20.
 NSaved=20 IEnMin=20 EnMin=  2.92212492767385     IErMin=20 ErrMin= 2.53D-05
 ErrMax= 2.53D-05  0.00D+00 EMaxC= 1.00D-01 BMatC= 7.63D-08 BMatP= 1.73D-07
 IDIUse=1 WtCom= 1.00D+00 WtEn= 0.00D+00
 Coeff-Com:  0.814D-05-0.798D-04-0.550D-03 0.479D-03 0.431D-04-0.193D-02
 Coeff-Com:  0.648D-03 0.672D-02-0.453D-02-0.736D-02-0.194D-02-0.620D-02
 Coeff-Com:  0.110D-01-0.335D-02 0.107D+00 0.740D-01-0.385D+00-0.279D+00
 Coeff-Com:  0.592D+00 0.898D+00
 Coeff:      0.814D-05-0.798D-04-0.550D-03 0.479D-03 0.431D-04-0.193D-02
 Coeff:      0.648D-03 0.672D-02-0.453D-02-0.736D-02-0.194D-02-0.620D-02
 Coeff:      0.110D-01-0.335D-02 0.107D+00 0.740D-01-0.385D+00-0.279D+00
 Coeff:      0.592D+00 0.898D+00
 Gap=     0.189 Goal=   None    Shift=    0.000
 RMSDP=4.82D-05 MaxDP=9.35D-04 DE=-7.22D-06 OVMax= 1.78D-03

 Cycle  25  Pass 1  IDiag  3:
 E=  2.92212384696199     Delta-E=       -0.000001080712 Rises=F Damp=F
 DIIS: error= 1.64D-05 at cycle  25 NSaved=  20.
 NSaved=20 IEnMin=20 EnMin=  2.92212384696199     IErMin=20 ErrMin= 1.64D-05
 ErrMax= 1.64D-05  0.00D+00 EMaxC= 1.00D-01 BMatC= 2.11D-08 BMatP= 7.63D-08
 IDIUse=1 WtCom= 1.00D+00 WtEn= 0.00D+00
 Coeff-Com:  0.114D-03-0.795D-03 0.111D-02-0.331D-03-0.638D-03 0.384D-02
 Coeff-Com: -0.972D-02 0.142D-01-0.106D-01-0.278D-02 0.103D-01-0.731D-02
 Coeff-Com:  0.491D-02-0.350D-01-0.247D-01 0.195D+00 0.728D-01-0.534D+00
 Coeff-Com: -0.310D+00 0.163D+01
 Coeff:      0.114D-03-0.795D-03 0.111D-02-0.331D-03-0.638D-03 0.384D-02
 Coeff:     -0.972D-02 0.142D-01-0.106D-01-0.278D-02 0.103D-01-0.731D-02
 Coeff:      0.491D-02-0.350D-01-0.247D-01 0.195D+00 0.728D-01-0.534D+00
 Coeff:     -0.310D+00 0.163D+01
 Gap=     0.189 Goal=   None    Shift=    0.000
 RMSDP=4.18D-05 MaxDP=6.90D-04 DE=-1.08D-06 OVMax= 1.11D-03

 Cycle  26  Pass 1  IDiag  3:
 E=  2.92212335846875     Delta-E=       -0.000000488493 Rises=F Damp=F
 DIIS: error= 6.68D-06 at cycle  26 NSaved=  20.
 NSaved=20 IEnMin=20 EnMin=  2.92212335846875     IErMin=20 ErrMin= 6.68D-06
 ErrMax= 6.68D-06  0.00D+00 EMaxC= 1.00D-01 BMatC= 4.67D-09 BMatP= 2.11D-08
 IDIUse=1 WtCom= 1.00D+00 WtEn= 0.00D+00
 Coeff-Com:  0.146D-03-0.419D-03 0.860D-03-0.439D-03-0.162D-02 0.287D-02
 Coeff-Com: -0.739D-02 0.102D-01-0.164D-02-0.462D-02 0.838D-03-0.755D-03
 Coeff-Com:  0.115D-01 0.104D-01-0.472D-01-0.321D-01 0.165D+00-0.470D-02
 Coeff-Com: -0.619D+00 0.152D+01
 Coeff:      0.146D-03-0.419D-03 0.860D-03-0.439D-03-0.162D-02 0.287D-02
 Coeff:     -0.739D-02 0.102D-01-0.164D-02-0.462D-02 0.838D-03-0.755D-03
 Coeff:      0.115D-01 0.104D-01-0.472D-01-0.321D-01 0.165D+00-0.470D-02
 Coeff:     -0.619D+00 0.152D+01
 Gap=     0.189 Goal=   None    Shift=    0.000
 RMSDP=1.03D-05 MaxDP=1.19D-04 DE=-4.88D-07 OVMax= 2.18D-04

 Cycle  27  Pass 1  IDiag  3:
 E=  2.92212328613391     Delta-E=       -0.000000072335 Rises=F Damp=F
 DIIS: error= 3.53D-06 at cycle  27 NSaved=  20.
 NSaved=20 IEnMin=20 EnMin=  2.92212328613391     IErMin=20 ErrMin= 3.53D-06
 ErrMax= 3.53D-06  0.00D+00 EMaxC= 1.00D-01 BMatC= 1.05D-09 BMatP= 4.67D-09
 IDIUse=1 WtCom= 1.00D+00 WtEn= 0.00D+00
 Coeff-Com:  0.127D-03-0.405D-03 0.807D-03-0.922D-03 0.798D-03 0.440D-03
 Coeff-Com: -0.261D-02 0.828D-03 0.105D-02-0.210D-02 0.172D-02-0.485D-02
 Coeff-Com: -0.657D-02 0.273D-01 0.853D-02-0.442D-01 0.142D-01 0.113D+00
 Coeff-Com: -0.721D+00 0.161D+01
 Coeff:      0.127D-03-0.405D-03 0.807D-03-0.922D-03 0.798D-03 0.440D-03
 Coeff:     -0.261D-02 0.828D-03 0.105D-02-0.210D-02 0.172D-02-0.485D-02
 Coeff:     -0.657D-02 0.273D-01 0.853D-02-0.442D-01 0.142D-01 0.113D+00
 Coeff:     -0.721D+00 0.161D+01
 Gap=     0.189 Goal=   None    Shift=    0.000
 RMSDP=4.69D-06 MaxDP=5.12D-05 DE=-7.23D-08 OVMax= 9.74D-05

 Cycle  28  Pass 1  IDiag  3:
 E=  2.92212326753167     Delta-E=       -0.000000018602 Rises=F Damp=F
 DIIS: error= 1.56D-06 at cycle  28 NSaved=  20.
 NSaved=20 IEnMin=20 EnMin=  2.92212326753167     IErMin=20 ErrMin= 1.56D-06
 ErrMax= 1.56D-06  0.00D+00 EMaxC= 1.00D-01 BMatC= 2.55D-10 BMatP= 1.05D-09
 IDIUse=1 WtCom= 1.00D+00 WtEn= 0.00D+00
 Coeff-Com:  0.649D-04-0.108D-03 0.602D-04-0.320D-03-0.143D-03 0.233D-02
 Coeff-Com: -0.114D-02-0.573D-04 0.194D-03-0.852D-03 0.310D-02 0.186D-02
 Coeff-Com: -0.119D-01-0.470D-02 0.197D-01-0.956D-02-0.197D-01 0.286D+00
 Coeff-Com: -0.110D+01 0.184D+01
 Coeff:      0.649D-04-0.108D-03 0.602D-04-0.320D-03-0.143D-03 0.233D-02
 Coeff:     -0.114D-02-0.573D-04 0.194D-03-0.852D-03 0.310D-02 0.186D-02
 Coeff:     -0.119D-01-0.470D-02 0.197D-01-0.956D-02-0.197D-01 0.286D+00
 Coeff:     -0.110D+01 0.184D+01
 Gap=     0.189 Goal=   None    Shift=    0.000
 RMSDP=3.38D-06 MaxDP=6.87D-05 DE=-1.86D-08 OVMax= 1.16D-04

 Cycle  29  Pass 1  IDiag  3:
 E=  2.92212326182062     Delta-E=       -0.000000005711 Rises=F Damp=F
 DIIS: error= 6.84D-07 at cycle  29 NSaved=  20.
 NSaved=20 IEnMin=20 EnMin=  2.92212326182062     IErMin=20 ErrMin= 6.84D-07
 ErrMax= 6.84D-07  0.00D+00 EMaxC= 1.00D-01 BMatC= 7.64D-11 BMatP= 2.55D-10
 IDIUse=1 WtCom= 1.00D+00 WtEn= 0.00D+00
 Coeff-Com:  0.166D-03-0.606D-03 0.974D-03-0.736D-03-0.107D-03-0.390D-03
 Coeff-Com: -0.452D-03-0.644D-04 0.739D-03-0.120D-03-0.467D-03 0.325D-02
 Coeff-Com: -0.207D-03-0.163D-02 0.301D-02-0.138D-01 0.431D-01-0.171D-01
 Coeff-Com: -0.383D+00 0.137D+01
 Coeff:      0.166D-03-0.606D-03 0.974D-03-0.736D-03-0.107D-03-0.390D-03
 Coeff:     -0.452D-03-0.644D-04 0.739D-03-0.120D-03-0.467D-03 0.325D-02
 Coeff:     -0.207D-03-0.163D-02 0.301D-02-0.138D-01 0.431D-01-0.171D-01
 Coeff:     -0.383D+00 0.137D+01
 Gap=     0.189 Goal=   None    Shift=    0.000
 RMSDP=1.75D-06 MaxDP=2.50D-05 DE=-5.71D-09 OVMax= 5.91D-05

 Cycle  30  Pass 1  IDiag  3:
 E=  2.92212326030449     Delta-E=       -0.000000001516 Rises=F Damp=F
 DIIS: error= 6.77D-07 at cycle  30 NSaved=  20.
 NSaved=20 IEnMin=20 EnMin=  2.92212326030449     IErMin=20 ErrMin= 6.77D-07
 ErrMax= 6.77D-07  0.00D+00 EMaxC= 1.00D-01 BMatC= 3.09D-11 BMatP= 7.64D-11
 IDIUse=1 WtCom= 1.00D+00 WtEn= 0.00D+00
 Coeff-Com:  0.103D-03-0.214D-03 0.351D-03-0.483D-03 0.293D-03 0.333D-03
 Coeff-Com: -0.596D-03 0.168D-03-0.473D-03-0.144D-02 0.379D-02 0.109D-02
 Coeff-Com: -0.683D-02 0.247D-02 0.783D-02-0.696D-01 0.301D+00-0.554D+00
 Coeff-Com: -0.254D-01 0.134D+01
 Coeff:      0.103D-03-0.214D-03 0.351D-03-0.483D-03 0.293D-03 0.333D-03
 Coeff:     -0.596D-03 0.168D-03-0.473D-03-0.144D-02 0.379D-02 0.109D-02
 Coeff:     -0.683D-02 0.247D-02 0.783D-02-0.696D-01 0.301D+00-0.554D+00
 Coeff:     -0.254D-01 0.134D+01
 Gap=     0.189 Goal=   None    Shift=    0.000
 RMSDP=1.01D-06 MaxDP=1.66D-05 DE=-1.52D-09 OVMax= 3.20D-05

 Cycle  31  Pass 1  IDiag  3:
 E=  2.92212325953255     Delta-E=       -0.000000000772 Rises=F Damp=F
 DIIS: error= 3.30D-07 at cycle  31 NSaved=  20.
 NSaved=20 IEnMin=20 EnMin=  2.92212325953255     IErMin=20 ErrMin= 3.30D-07
 ErrMax= 3.30D-07  0.00D+00 EMaxC= 1.00D-01 BMatC= 1.25D-11 BMatP= 3.09D-11
 IDIUse=1 WtCom= 1.00D+00 WtEn= 0.00D+00
 Coeff-Com: -0.128D-03 0.166D-03 0.240D-03-0.286D-04-0.190D-03 0.241D-03
 Coeff-Com: -0.103D-03 0.470D-04 0.397D-03-0.977D-03-0.367D-03 0.118D-02
 Coeff-Com: -0.594D-03 0.464D-02-0.437D-02-0.456D-01 0.167D+00-0.377D+00
 Coeff-Com: -0.280D+00 0.153D+01
 Coeff:     -0.128D-03 0.166D-03 0.240D-03-0.286D-04-0.190D-03 0.241D-03
 Coeff:     -0.103D-03 0.470D-04 0.397D-03-0.977D-03-0.367D-03 0.118D-02
 Coeff:     -0.594D-03 0.464D-02-0.437D-02-0.456D-01 0.167D+00-0.377D+00
 Coeff:     -0.280D+00 0.153D+01
 Gap=     0.189 Goal=   None    Shift=    0.000
 RMSDP=9.68D-07 MaxDP=1.93D-05 DE=-7.72D-10 OVMax= 2.78D-05

 Cycle  32  Pass 1  IDiag  3:
 E=  2.92212325913260     Delta-E=       -0.000000000400 Rises=F Damp=F
 DIIS: error= 2.53D-07 at cycle  32 NSaved=  20.
 NSaved=20 IEnMin=20 EnMin=  2.92212325913260     IErMin=20 ErrMin= 2.53D-07
 ErrMax= 2.53D-07  0.00D+00 EMaxC= 1.00D-01 BMatC= 5.46D-12 BMatP= 1.25D-11
 IDIUse=1 WtCom= 1.00D+00 WtEn= 0.00D+00
 Coeff-Com: -0.131D-04-0.552D-05 0.457D-04-0.381D-04-0.238D-03 0.750D-04
 Coeff-Com:  0.182D-03 0.193D-03-0.803D-03-0.502D-03 0.224D-02-0.683D-03
 Coeff-Com: -0.331D-02 0.178D-01-0.587D-01 0.115D+00-0.559D-01-0.133D-01
 Coeff-Com: -0.631D+00 0.163D+01
 Coeff:     -0.131D-04-0.552D-05 0.457D-04-0.381D-04-0.238D-03 0.750D-04
 Coeff:      0.182D-03 0.193D-03-0.803D-03-0.502D-03 0.224D-02-0.683D-03
 Coeff:     -0.331D-02 0.178D-01-0.587D-01 0.115D+00-0.559D-01-0.133D-01
 Coeff:     -0.631D+00 0.163D+01
 Gap=     0.189 Goal=   None    Shift=    0.000
 RMSDP=5.98D-07 MaxDP=8.26D-06 DE=-4.00D-10 OVMax= 1.91D-05

 Cycle  33  Pass 1  IDiag  3:
 E=  2.92212325895866     Delta-E=       -0.000000000174 Rises=F Damp=F
 DIIS: error= 1.86D-07 at cycle  33 NSaved=  20.
 NSaved=20 IEnMin=20 EnMin=  2.92212325895866     IErMin=20 ErrMin= 1.86D-07
 ErrMax= 1.86D-07  0.00D+00 EMaxC= 1.00D-01 BMatC= 2.37D-12 BMatP= 5.46D-12
 IDIUse=1 WtCom= 1.00D+00 WtEn= 0.00D+00
 Coeff-Com: -0.109D-03 0.193D-03-0.122D-03 0.868D-04 0.301D-05-0.100D-05
 Coeff-Com: -0.329D-04-0.143D-03-0.214D-03 0.703D-03 0.662D-03-0.389D-02
 Coeff-Com:  0.270D-02 0.890D-02-0.372D-01 0.106D+00-0.307D-01-0.206D+00
 Coeff-Com: -0.498D+00 0.166D+01
 Coeff:     -0.109D-03 0.193D-03-0.122D-03 0.868D-04 0.301D-05-0.100D-05
 Coeff:     -0.329D-04-0.143D-03-0.214D-03 0.703D-03 0.662D-03-0.389D-02
 Coeff:      0.270D-02 0.890D-02-0.372D-01 0.106D+00-0.307D-01-0.206D+00
 Coeff:     -0.498D+00 0.166D+01
 Gap=     0.189 Goal=   None    Shift=    0.000
 RMSDP=4.41D-07 MaxDP=7.28D-06 DE=-1.74D-10 OVMax= 1.79D-05

 Cycle  34  Pass 1  IDiag  3:
 E=  2.92212325887078     Delta-E=       -0.000000000088 Rises=F Damp=F
 DIIS: error= 1.25D-07 at cycle  34 NSaved=  20.
 NSaved=20 IEnMin=20 EnMin=  2.92212325887078     IErMin=20 ErrMin= 1.25D-07
 ErrMax= 1.25D-07  0.00D+00 EMaxC= 1.00D-01 BMatC= 1.05D-12 BMatP= 2.37D-12
 IDIUse=1 WtCom= 1.00D+00 WtEn= 0.00D+00
 Coeff-Com:  0.776D-04-0.120D-04-0.289D-04-0.144D-04 0.602D-04-0.586D-04
 Coeff-Com: -0.868D-04 0.102D-03-0.721D-04-0.312D-04 0.701D-03-0.144D-02
 Coeff-Com: -0.394D-03 0.411D-02-0.175D-01 0.939D-02 0.138D+00-0.339D+00
 Coeff-Com: -0.236D+00 0.144D+01
 Coeff:      0.776D-04-0.120D-04-0.289D-04-0.144D-04 0.602D-04-0.586D-04
 Coeff:     -0.868D-04 0.102D-03-0.721D-04-0.312D-04 0.701D-03-0.144D-02
 Coeff:     -0.394D-03 0.411D-02-0.175D-01 0.939D-02 0.138D+00-0.339D+00
 Coeff:     -0.236D+00 0.144D+01
 Gap=     0.189 Goal=   None    Shift=    0.000
 RMSDP=2.53D-07 MaxDP=4.25D-06 DE=-8.79D-11 OVMax= 1.06D-05

 Cycle  35  Pass 1  IDiag  3:
 E=  2.92212325884054     Delta-E=       -0.000000000030 Rises=F Damp=F
 DIIS: error= 7.68D-08 at cycle  35 NSaved=  20.
 NSaved=20 IEnMin=20 EnMin=  2.92212325884054     IErMin=20 ErrMin= 7.68D-08
 ErrMax= 7.68D-08  0.00D+00 EMaxC= 1.00D-01 BMatC= 4.14D-13 BMatP= 1.05D-12
 IDIUse=1 WtCom= 1.00D+00 WtEn= 0.00D+00
 Coeff-Com:  0.310D-05-0.124D-05-0.240D-04-0.395D-04 0.629D-04 0.166D-04
 Coeff-Com: -0.108D-03 0.128D-03 0.656D-04-0.203D-04 0.176D-03-0.229D-02
 Coeff-Com:  0.592D-02-0.242D-01 0.502D-01 0.941D-05 0.211D-01-0.232D+00
 Coeff-Com: -0.361D+00 0.154D+01
 Coeff:      0.310D-05-0.124D-05-0.240D-04-0.395D-04 0.629D-04 0.166D-04
 Coeff:     -0.108D-03 0.128D-03 0.656D-04-0.203D-04 0.176D-03-0.229D-02
 Coeff:      0.592D-02-0.242D-01 0.502D-01 0.941D-05 0.211D-01-0.232D+00
 Coeff:     -0.361D+00 0.154D+01
 Gap=     0.189 Goal=   None    Shift=    0.000
 RMSDP=1.77D-07 MaxDP=2.88D-06 DE=-3.02D-11 OVMax= 7.17D-06

 Cycle  36  Pass 1  IDiag  3:
 E=  2.92212325882849     Delta-E=       -0.000000000012 Rises=F Damp=F
 DIIS: error= 4.34D-08 at cycle  36 NSaved=  20.
 NSaved=20 IEnMin=20 EnMin=  2.92212325882849     IErMin=20 ErrMin= 4.34D-08
 ErrMax= 4.34D-08  0.00D+00 EMaxC= 1.00D-01 BMatC= 1.37D-13 BMatP= 4.14D-13
 IDIUse=1 WtCom= 1.00D+00 WtEn= 0.00D+00
 Coeff-Com: -0.150D-04 0.741D-05 0.162D-05-0.305D-04 0.911D-04 0.149D-04
 Coeff-Com: -0.148D-03-0.484D-04 0.275D-03-0.709D-03 0.772D-03 0.216D-03
 Coeff-Com:  0.353D-02-0.181D-01 0.114D-01 0.296D-01 0.441D-01-0.203D+00
 Coeff-Com: -0.344D+00 0.148D+01
 Coeff:     -0.150D-04 0.741D-05 0.162D-05-0.305D-04 0.911D-04 0.149D-04
 Coeff:     -0.148D-03-0.484D-04 0.275D-03-0.709D-03 0.772D-03 0.216D-03
 Coeff:      0.353D-02-0.181D-01 0.114D-01 0.296D-01 0.441D-01-0.203D+00
 Coeff:     -0.344D+00 0.148D+01
 Gap=     0.189 Goal=   None    Shift=    0.000
 RMSDP=8.68D-08 MaxDP=1.37D-06 DE=-1.21D-11 OVMax= 3.67D-06

 Cycle  37  Pass 1  IDiag  1:
 E=  2.92212325882565     Delta-E=       -0.000000000003 Rises=F Damp=F
 DIIS: error= 2.23D-08 at cycle  37 NSaved=  20.
 NSaved=20 IEnMin=20 EnMin=  2.92212325882565     IErMin=20 ErrMin= 2.23D-08
 ErrMax= 2.23D-08  0.00D+00 EMaxC= 1.00D-01 BMatC= 4.28D-14 BMatP= 1.37D-13
 IDIUse=1 WtCom= 1.00D+00 WtEn= 0.00D+00
 Coeff-Com: -0.220D-05-0.133D-04-0.676D-05 0.713D-04-0.999D-05-0.880D-04
 Coeff-Com:  0.436D-04-0.250D-04 0.288D-04 0.343D-03-0.103D-02 0.126D-02
 Coeff-Com: -0.534D-02 0.906D-02-0.121D-01 0.350D-01 0.114D-01-0.118D+00
 Coeff-Com: -0.368D+00 0.145D+01
 Coeff:     -0.220D-05-0.133D-04-0.676D-05 0.713D-04-0.999D-05-0.880D-04
 Coeff:      0.436D-04-0.250D-04 0.288D-04 0.343D-03-0.103D-02 0.126D-02
 Coeff:     -0.534D-02 0.906D-02-0.121D-01 0.350D-01 0.114D-01-0.118D+00
 Coeff:     -0.368D+00 0.145D+01
 RMSDP=4.44D-08 MaxDP=5.87D-07 DE=-2.84D-12 OVMax= 3.67D-06

 Cycle  38  Pass 1  IDiag  3:
 E=  2.92212325882406     Delta-E=       -0.000000000002 Rises=F Damp=F
 DIIS: error= 1.10D-08 at cycle  38 NSaved=  20.
 NSaved=20 IEnMin=20 EnMin=  2.92212325882406     IErMin=20 ErrMin= 1.10D-08
 ErrMax= 1.10D-08  0.00D+00 EMaxC= 1.00D-01 BMatC= 9.87D-15 BMatP= 4.28D-14
 IDIUse=1 WtCom= 1.00D+00 WtEn= 0.00D+00
 Large coefficients: NSaved= 20 BigCof=    0.00 CofMax=   10.00 Det=-4.83D-15
 Inversion failed.  Reducing to 19 matrices.
 Large coefficients: NSaved= 19 BigCof=    0.00 CofMax=   10.00 Det=-4.84D-15
 Inversion failed.  Reducing to 18 matrices.
 Large coefficients: NSaved= 18 BigCof=    0.00 CofMax=   10.00 Det=-4.84D-15
 Inversion failed.  Reducing to 17 matrices.
 Large coefficients: NSaved= 17 BigCof=    0.00 CofMax=   10.00 Det=-4.85D-15
 Inversion failed.  Reducing to 16 matrices.
 Large coefficients: NSaved= 16 BigCof=    0.00 CofMax=   10.00 Det=-4.89D-15
 Inversion failed.  Reducing to 15 matrices.
 Coeff-Com: -0.395D-05 0.119D-04 0.143D-03-0.721D-03 0.171D-02-0.222D-02
 Coeff-Com:  0.341D-02-0.836D-02 0.121D-01-0.154D-01 0.243D-01 0.427D-01
 Coeff-Com:  0.289D-02-0.674D+00 0.161D+01
 Coeff:     -0.395D-05 0.119D-04 0.143D-03-0.721D-03 0.171D-02-0.222D-02
 Coeff:      0.341D-02-0.836D-02 0.121D-01-0.154D-01 0.243D-01 0.427D-01
 Coeff:      0.289D-02-0.674D+00 0.161D+01
 Gap=     0.167 Goal=   None    Shift=    0.000
 RMSDP=1.80D-08 MaxDP=2.77D-07 DE=-1.59D-12 OVMax= 4.76D-07

 Cycle  39  Pass 1  IDiag  3:
 E=  2.92212325882406     Delta-E=        0.000000000000 Rises=F Damp=F
 DIIS: error= 5.64D-09 at cycle  39 NSaved=  16.
 NSaved=16 IEnMin=15 EnMin=  2.92212325882406     IErMin=16 ErrMin= 5.64D-09
 ErrMax= 5.64D-09  0.00D+00 EMaxC= 1.00D-01 BMatC= 2.32D-15 BMatP= 9.87D-15
 IDIUse=1 WtCom= 1.00D+00 WtEn= 0.00D+00
 Large coefficients: NSaved= 16 BigCof=    0.00 CofMax=   10.00 Det=-5.35D-16
 Inversion failed.  Reducing to 15 matrices.
 Coeff-Com:  0.734D-05-0.847D-04 0.285D-03-0.514D-03 0.146D-03-0.211D-02
 Coeff-Com:  0.763D-02-0.116D-01 0.119D-01-0.136D-01-0.133D-01 0.105D-01
 Coeff-Com:  0.273D+00-0.112D+01 0.186D+01
 Coeff:      0.734D-05-0.847D-04 0.285D-03-0.514D-03 0.146D-03-0.211D-02
 Coeff:      0.763D-02-0.116D-01 0.119D-01-0.136D-01-0.133D-01 0.105D-01
 Coeff:      0.273D+00-0.112D+01 0.186D+01
 Gap=     0.167 Goal=   None    Shift=    0.000
 RMSDP=1.12D-08 MaxDP=1.54D-07 DE= 0.00D+00 OVMax= 2.51D-07

 Cycle  40  Pass 1  IDiag  3:
 E=  2.92212325882383     Delta-E=       -0.000000000000 Rises=F Damp=F
 DIIS: error= 2.99D-09 at cycle  40 NSaved=  16.
 NSaved=16 IEnMin=16 EnMin=  2.92212325882383     IErMin=16 ErrMin= 2.99D-09
 ErrMax= 2.99D-09  0.00D+00 EMaxC= 1.00D-01 BMatC= 5.06D-16 BMatP= 2.32D-15
 IDIUse=1 WtCom= 1.00D+00 WtEn= 0.00D+00
 Large coefficients: NSaved= 16 BigCof=    0.00 CofMax=   10.00 Det=-1.09D-16
 Inversion failed.  Reducing to 15 matrices.
 Coeff-Com:  0.959D-04-0.405D-03 0.747D-03-0.865D-03 0.120D-02-0.207D-02
 Coeff-Com:  0.370D-02-0.752D-02 0.726D-02-0.983D-03 0.998D-03-0.337D-01
 Coeff-Com:  0.254D+00-0.831D+00 0.161D+01
 Coeff:      0.959D-04-0.405D-03 0.747D-03-0.865D-03 0.120D-02-0.207D-02
 Coeff:      0.370D-02-0.752D-02 0.726D-02-0.983D-03 0.998D-03-0.337D-01
 Coeff:      0.254D+00-0.831D+00 0.161D+01
 Gap=     0.167 Goal=   None    Shift=    0.000
 RMSDP=5.18D-09 MaxDP=8.27D-08 DE=-2.27D-13 OVMax= 1.33D-07

 Cycle  41  Pass 2  IDiag  1:
 SCF Done:  E(RPM6) =   2.92212325882     A.U. after   41 cycles
            NFock= 40  Conv=0.52D-08     -V/T= 1.0187
 KE=-1.560033728563D+02 PE=-8.536718940969D+02 EE= 4.463612602887D+02
 Leave Link  502 at Fri Jan  7 12:01:12 2022, MaxMem=   402653184 cpu:             277.7 elap:              49.5
 (Enter /work/01114/jfonner/frontera/gaussian/16rC.01/g16/l601.exe)
 Copying SCF densities to generalized density rwf, IOpCl= 0 IROHF=0.

 **********************************************************************

            Population analysis using the SCF Density.

 **********************************************************************

 Alpha  occ. eigenvalues --   -2.13595  -2.08687  -2.05978  -2.00834  -1.97767
 Alpha  occ. eigenvalues --   -1.96493  -1.89595  -1.86043  -1.79589  -1.77325
 Alpha  occ. eigenvalues --   -1.71124  -1.64862  -1.60782  -1.57985  -1.55020
 Alpha  occ. eigenvalues --   -1.51853  -1.47859  -1.47775  -1.46545  -1.45003
 Alpha  occ. eigenvalues --   -1.44252  -1.43246  -1.41750  -1.38055  -1.37292
 Alpha  occ. eigenvalues --   -1.36693  -1.33523  -1.32125  -1.29846  -1.28922
 Alpha  occ. eigenvalues --   -1.27648  -1.24910  -1.23088  -1.22439  -1.22145
 Alpha  occ. eigenvalues --   -1.20522  -1.18670  -1.17795
 Alpha virt. eigenvalues --   -1.01094  -0.99634  -0.91668  -0.89824  -0.88179
 Alpha virt. eigenvalues --   -0.87561  -0.84040  -0.83397  -0.82893  -0.81929
 Alpha virt. eigenvalues --   -0.81354  -0.80585  -0.80075  -0.79768  -0.79067
 Alpha virt. eigenvalues --   -0.77960  -0.77519  -0.76511  -0.75861  -0.75029
 Alpha virt. eigenvalues --   -0.73242  -0.72598  -0.71879  -0.71649  -0.70466
 Alpha virt. eigenvalues --   -0.69705  -0.69638  -0.68517  -0.67208  -0.66985
 Alpha virt. eigenvalues --   -0.66282  -0.64759  -0.64060  -0.59178
          Condensed to atoms (all electrons):
               1          2          3          4          5          6
     1  C    3.755939   0.000000   0.000000   0.000000   0.000000   0.000000
     2  O    0.000000   5.690138   0.000000   0.000000   0.000000   0.000000
     3  N    0.000000   0.000000   4.819266   0.000000   0.000000   0.000000
     4  C    0.000000   0.000000   0.000000   3.822141   0.000000   0.000000
     5  C    0.000000   0.000000   0.000000   0.000000   3.645342   0.000000
     6  O    0.000000   0.000000   0.000000   0.000000   0.000000   6.015934
     7  N    0.000000   0.000000   0.000000   0.000000   0.000000   0.000000
     8  C    0.000000   0.000000   0.000000   0.000000   0.000000   0.000000
     9  C    0.000000   0.000000   0.000000   0.000000   0.000000   0.000000
    10  C    0.000000   0.000000   0.000000   0.000000   0.000000   0.000000
    11  C    0.000000   0.000000   0.000000   0.000000   0.000000   0.000000
    12  O    0.000000   0.000000   0.000000   0.000000   0.000000   0.000000
    13  N    0.000000   0.000000   0.000000   0.000000   0.000000   0.000000
    14  C    0.000000   0.000000   0.000000   0.000000   0.000000   0.000000
    15  C    0.000000   0.000000   0.000000   0.000000   0.000000   0.000000
    16  C    0.000000   0.000000   0.000000   0.000000   0.000000   0.000000
    17  C    0.000000   0.000000   0.000000   0.000000   0.000000   0.000000
    18  H    0.000000   0.000000   0.000000   0.000000   0.000000   0.000000
    19  H    0.000000   0.000000   0.000000   0.000000   0.000000   0.000000
    20  H    0.000000   0.000000   0.000000   0.000000   0.000000   0.000000
    21  H    0.000000   0.000000   0.000000   0.000000   0.000000   0.000000
               7          8          9         10         11         12
     1  C    0.000000   0.000000   0.000000   0.000000   0.000000   0.000000
     2  O    0.000000   0.000000   0.000000   0.000000   0.000000   0.000000
     3  N    0.000000   0.000000   0.000000   0.000000   0.000000   0.000000
     4  C    0.000000   0.000000   0.000000   0.000000   0.000000   0.000000
     5  C    0.000000   0.000000   0.000000   0.000000   0.000000   0.000000
     6  O    0.000000   0.000000   0.000000   0.000000   0.000000   0.000000
     7  N    5.419808   0.000000   0.000000   0.000000   0.000000   0.000000
     8  C    0.000000   3.517458   0.000000   0.000000   0.000000   0.000000
     9  C    0.000000   0.000000   4.260229   0.000000   0.000000   0.000000
    10  C    0.000000   0.000000   0.000000   2.821177   0.000000   0.000000
    11  C    0.000000   0.000000   0.000000   0.000000   3.863821   0.000000
    12  O    0.000000   0.000000   0.000000   0.000000   0.000000   5.699730
    13  N    0.000000   0.000000   0.000000   0.000000   0.000000   0.000000
    14  C    0.000000   0.000000   0.000000   0.000000   0.000000   0.000000
    15  C    0.000000   0.000000   0.000000   0.000000   0.000000   0.000000
    16  C    0.000000   0.000000   0.000000   0.000000   0.000000   0.000000
    17  C    0.000000   0.000000   0.000000   0.000000   0.000000   0.000000
    18  H    0.000000   0.000000   0.000000   0.000000   0.000000   0.000000
    19  H    0.000000   0.000000   0.000000   0.000000   0.000000   0.000000
    20  H    0.000000   0.000000   0.000000   0.000000   0.000000   0.000000
    21  H    0.000000   0.000000   0.000000   0.000000   0.000000   0.000000
              13         14         15         16         17         18
     1  C    0.000000   0.000000   0.000000   0.000000   0.000000   0.000000
     2  O    0.000000   0.000000   0.000000   0.000000   0.000000   0.000000
     3  N    0.000000   0.000000   0.000000   0.000000   0.000000   0.000000
     4  C    0.000000   0.000000   0.000000   0.000000   0.000000   0.000000
     5  C    0.000000   0.000000   0.000000   0.000000   0.000000   0.000000
     6  O    0.000000   0.000000   0.000000   0.000000   0.000000   0.000000
     7  N    0.000000   0.000000   0.000000   0.000000   0.000000   0.000000
     8  C    0.000000   0.000000   0.000000   0.000000   0.000000   0.000000
     9  C    0.000000   0.000000   0.000000   0.000000   0.000000   0.000000
    10  C    0.000000   0.000000   0.000000   0.000000   0.000000   0.000000
    11  C    0.000000   0.000000   0.000000   0.000000   0.000000   0.000000
    12  O    0.000000   0.000000   0.000000   0.000000   0.000000   0.000000
    13  N    4.888192   0.000000   0.000000   0.000000   0.000000   0.000000
    14  C    0.000000   3.248891   0.000000   0.000000   0.000000   0.000000
    15  C    0.000000   0.000000   5.021130   0.000000   0.000000   0.000000
    16  C    0.000000   0.000000   0.000000   2.829238   0.000000   0.000000
    17  C    0.000000   0.000000   0.000000   0.000000   2.820382   0.000000
    18  H    0.000000   0.000000   0.000000   0.000000   0.000000   0.792528
    19  H    0.000000   0.000000   0.000000   0.000000   0.000000   0.000000
    20  H    0.000000   0.000000   0.000000   0.000000   0.000000   0.000000
    21  H    0.000000   0.000000   0.000000   0.000000   0.000000   0.000000
              19         20         21
     1  C    0.000000   0.000000   0.000000
     2  O    0.000000   0.000000   0.000000
     3  N    0.000000   0.000000   0.000000
     4  C    0.000000   0.000000   0.000000
     5  C    0.000000   0.000000   0.000000
     6  O    0.000000   0.000000   0.000000
     7  N    0.000000   0.000000   0.000000
     8  C    0.000000   0.000000   0.000000
     9  C    0.000000   0.000000   0.000000
    10  C    0.000000   0.000000   0.000000
    11  C    0.000000   0.000000   0.000000
    12  O    0.000000   0.000000   0.000000
    13  N    0.000000   0.000000   0.000000
    14  C    0.000000   0.000000   0.000000
    15  C    0.000000   0.000000   0.000000
    16  C    0.000000   0.000000   0.000000
    17  C    0.000000   0.000000   0.000000
    18  H    0.000000   0.000000   0.000000
    19  H    1.435644   0.000000   0.000000
    20  H    0.000000   0.646416   0.000000
    21  H    0.000000   0.000000   0.986597
 Mulliken charges:
               1
     1  C    0.244061
     2  O    0.309862
     3  N    0.180734
     4  C    0.177859
     5  C    0.354658
     6  O   -0.015934
     7  N   -0.419808
     8  C    0.482542
     9  C   -0.260229
    10  C    1.178823
    11  C    0.136179
    12  O    0.300270
    13  N    0.111808
    14  C    0.751109
    15  C   -1.021130
    16  C    1.170762
    17  C    1.179618
    18  H    0.207472
    19  H   -0.435644
    20  H    0.353584
    21  H    0.013403
 Sum of Mulliken charges =   5.00000
 Mulliken charges with hydrogens summed into heavy atoms:
               1
     1  C    0.451533
     2  O    0.309862
     3  N    0.180734
     4  C    0.177859
     5  C    0.354658
     6  O   -0.015934
     7  N   -0.419808
     8  C    0.482542
     9  C   -0.695873
    10  C    1.178823
    11  C    0.136179
    12  O    0.300270
    13  N    0.111808
    14  C    1.118095
    15  C   -1.021130
    16  C    1.170762
    17  C    1.179618
 Charge=              5.0000 electrons
 Dipole moment (field-independent basis, Debye):
    X=             -9.9800    Y=            -12.9941    Z=            147.5307  Tot=            148.4377
 N-N= 5.662361299234D+02 E-N=-8.536718940511D+02  KE=-1.560033728563D+02
 Leave Link  601 at Fri Jan  7 12:01:13 2022, MaxMem=   402653184 cpu:               1.8 elap:               0.7
 (Enter /work/01114/jfonner/frontera/gaussian/16rC.01/g16/l9999.exe)

 Test job not archived.
 1\1\GINC-C208-012\SP\RPM6\ZDO\C11H4N3O3(5+)\SA748948\07-Jan-2022\0\\#p
  int=acc2e=12 pm6 charge nosymm\\Atom number=21\\5,1\C,0,-4.35699219,-
 0.6729987,2.58799322\O,0,-4.21199207,-1.86999463,2.49199032\N,0,-3.381
 0008,0.12499046,2.952998\C,0,-2.06200457,-0.39000497,3.27399921\C,0,-1
 .63600655,0.17499612,4.60000724\O,0,-1.74400817,1.35600031,4.86199097\
 N,0,-1.09500047,-0.70000479,5.41500454\C,0,-0.57199533,-0.31100555,6.6
 6899843\C,0,-0.99299921,-0.04500171,2.19700167\C,0,0.38999976,-0.48799
 013,2.64000498\C,0,0.84001601,-0.85400874,6.79200257\O,0,1.02699873,-2
 .02200131,6.72000225\N,0,1.81000717,0.00198939,7.02300606\C,0,3.190995
 74,-0.42899304,7.10099501\C,0,-1.41099912,-0.91298908,7.79700845\C,0,-
 0.72700584,-0.64499759,9.12301223\C,0,-2.79999884,-0.34900252,7.788996
 35\H,0,-5.30551789,-0.20117924,2.43770884\H,0,-1.2695535,-0.48819548,1
 .26319387\H,0,3.70314378,0.0596909,7.90336175\H,0,3.66072959,-0.203800
 52,6.16636223\\Version=ES64L-G16RevC.01\HF=2.9221233\RMSD=5.177e-09\Di
 pole=5.7161979,-0.6092898,8.8810532\PG=C01 [X(C11H4N3O3)]\\@


 ALL MEN WHO EXPLORE
 DEPLORE
 THAT FRUSTRATING HURDLE
 THE GIRDLE.

         -- COLIN FLETCHER
 Job cpu time:       0 days  0 hours  5 minutes 38.2 seconds.
 Elapsed time:       0 days  0 hours  1 minutes  0.5 seconds.
 File lengths (MBytes):  RWF=      6 Int=      0 D2E=      0 Chk=      2 Scr=      1
 Normal termination of Gaussian 16 at Fri Jan  7 12:01:13 2022.
