Atom number=21                                                          
SP        RPM6                                                        ZDO                 
Number of atoms                            I               21
Info1-9                                    I   N=           9
          81          80           0           0           0         111
           1           8        2302
Full Title                                 C   N=           2
Atom number=21          
Route                                      C   N=           3
#p int=acc2e=12 pm6 charge nosymm   
Charge                                     I                5
Multiplicity                               I                1
Number of electrons                        I               76
Number of alpha electrons                  I               38
Number of beta electrons                   I               38
Number of basis functions                  I               72
Number of independent functions            I               72
Number of point charges in /Mol/           I                0
Number of translation vectors              I                0
Atomic numbers                             I   N=          21
           6           8           7           6           6           8
           7           6           6           6           6           8
           7           6           6           6           6           1
           1           1           1
Nuclear charges                            R   N=          21
  4.00000000E+00  6.00000000E+00  5.00000000E+00  4.00000000E+00  4.00000000E+00
  6.00000000E+00  5.00000000E+00  4.00000000E+00  4.00000000E+00  4.00000000E+00
  4.00000000E+00  6.00000000E+00  5.00000000E+00  4.00000000E+00  4.00000000E+00
  4.00000000E+00  4.00000000E+00  1.00000000E+00  1.00000000E+00  1.00000000E+00
  1.00000000E+00
Current cartesian coordinates              R   N=          63
 -8.23352197E+00 -1.27178323E+00  4.89059840E+00 -7.95951145E+00 -3.53377771E+00
  4.70917921E+00 -6.38916554E+00  2.36197738E-01  5.58035747E+00 -3.89662390E+00
 -7.37002581E-01  6.18696184E+00 -3.09160432E+00  3.30694740E-01  8.69275385E+00
 -3.29569780E+00  2.56246921E+00  9.18783135E+00 -2.06925099E+00 -1.32281734E+00
  1.02328755E+01 -1.08091452E+00 -5.87715313E-01  1.26025806E+01 -1.87649655E+00
 -8.50409070E-02  4.15173145E+00  7.36992735E-01 -9.22167697E-01  4.98888638E+00
  1.58740020E+00 -1.61384263E+00  1.28350247E+01  1.94074633E+00 -3.82102870E+00
  1.26989638E+01  3.42041783E+00  3.75940225E-03  1.32715580E+01  6.03010801E+00
 -8.10679355E-01  1.34189358E+01 -2.66640190E+00 -1.72529932E+00  1.47342106E+01
 -1.37384193E+00 -1.21886880E+00  1.72399945E+01 -5.29123096E+00 -6.59519180E-01
  1.47190699E+01 -1.00259758E+01 -3.80173666E-01  4.60660208E+00 -2.39910842E+00
 -9.22555752E-01  2.38709046E+00  6.99792754E+00  1.12799453E-01  1.49351892E+01
  6.91777634E+00 -3.85127167E-01  1.16527358E+01
Number of symbols in /Mol/                 I                0
Int Atom Types                             I   N=          21
           0           0           0           0           0           0
           0           0           0           0           0           0
           0           0           0           0           0           0
           0           0           0
Force Field                                I                0
Atom Types                                 C   N=          21
                                                            
                                                            
                                                            
                                                            
            
MM charges                                 R   N=          21
  0.00000000E+00  0.00000000E+00  0.00000000E+00  0.00000000E+00  0.00000000E+00
  0.00000000E+00  0.00000000E+00  0.00000000E+00  0.00000000E+00  0.00000000E+00
  0.00000000E+00  0.00000000E+00  0.00000000E+00  0.00000000E+00  0.00000000E+00
  0.00000000E+00  0.00000000E+00  0.00000000E+00  0.00000000E+00  0.00000000E+00
  0.00000000E+00
Integer atomic weights                     I   N=          21
          12          16          14          12          12          16
          14          12          12          12          12          16
          14          12          12          12          12           1
           1           1           1
Real atomic weights                        R   N=          21
  1.20000000E+01  1.59949146E+01  1.40030740E+01  1.20000000E+01  1.20000000E+01
  1.59949146E+01  1.40030740E+01  1.20000000E+01  1.20000000E+01  1.20000000E+01
  1.20000000E+01  1.59949146E+01  1.40030740E+01  1.20000000E+01  1.20000000E+01
  1.20000000E+01  1.20000000E+01  1.00782504E+00  1.00782504E+00  1.00782504E+00
  1.00782504E+00
Atom fragment info                         I   N=          21
           0           0           0           0           0           0
           0           0           0           0           0           0
           0           0           0           0           0           0
           0           0           0
Atom residue num                           I   N=          21
           0           0           0           0           0           0
           0           0           0           0           0           0
           0           0           0           0           0           0
           0           0           0
Nuclear spins                              I   N=          21
           0           0           2           0           0           0
           2           0           0           0           0           0
           2           0           0           0           0           1
           1           1           1
Nuclear ZEff                               R   N=          21
 -3.90000000E+00 -6.00000000E+00 -4.90000000E+00 -3.90000000E+00 -3.90000000E+00
 -6.00000000E+00 -4.90000000E+00 -3.90000000E+00 -3.90000000E+00 -3.90000000E+00
 -3.90000000E+00 -6.00000000E+00 -4.90000000E+00 -3.90000000E+00 -3.90000000E+00
 -3.90000000E+00 -3.90000000E+00 -1.00000000E+00 -1.00000000E+00 -1.00000000E+00
 -1.00000000E+00
Nuclear ZNuc                               R   N=          21
  6.00000000E+00  8.00000000E+00  7.00000000E+00  6.00000000E+00  6.00000000E+00
  8.00000000E+00  7.00000000E+00  6.00000000E+00  6.00000000E+00  6.00000000E+00
  6.00000000E+00  8.00000000E+00  7.00000000E+00  6.00000000E+00  6.00000000E+00
  6.00000000E+00  6.00000000E+00  1.00000000E+00  1.00000000E+00  1.00000000E+00
  1.00000000E+00
Nuclear QMom                               R   N=          21
  0.00000000E+00  0.00000000E+00  2.04400000E+00  0.00000000E+00  0.00000000E+00
  0.00000000E+00  2.04400000E+00  0.00000000E+00  0.00000000E+00  0.00000000E+00
  0.00000000E+00  0.00000000E+00  2.04400000E+00  0.00000000E+00  0.00000000E+00
  0.00000000E+00  0.00000000E+00  0.00000000E+00  0.00000000E+00  0.00000000E+00
  0.00000000E+00
Nuclear GFac                               R   N=          21
  0.00000000E+00  0.00000000E+00  4.03761000E-01  0.00000000E+00  0.00000000E+00
  0.00000000E+00  4.03761000E-01  0.00000000E+00  0.00000000E+00  0.00000000E+00
  0.00000000E+00  0.00000000E+00  4.03761000E-01  0.00000000E+00  0.00000000E+00
  0.00000000E+00  0.00000000E+00  2.79284600E+00  2.79284600E+00  2.79284600E+00
  2.79284600E+00
MicOpt                                     I   N=          21
          -1          -1          -1          -1          -1          -1
          -1          -1          -1          -1          -1          -1
          -1          -1          -1          -1          -1          -1
          -1          -1          -1
Number of residues                         I                0
Number of secondary structures             I                0
Number of contracted shells                I               21
Number of primitive shells                 I              126
Pure/Cartesian d shells                    I                0
Pure/Cartesian f shells                    I                0
Highest angular momentum                   I                1
Largest degree of contraction              I                6
Shell types                                I   N=          21
          -1          -1          -1          -1          -1          -1
          -1          -1          -1          -1          -1          -1
          -1          -1          -1          -1          -1           0
           0           0           0
Number of primitives per shell             I   N=          21
           6           6           6           6           6           6
           6           6           6           6           6           6
           6           6           6           6           6           6
           6           6           6
Shell to atom map                          I   N=          21
           1           2           3           4           5           6
           7           8           9          10          11          12
          13          14          15          16          17          18
          19          20          21
Primitive exponents                        R   N=         126
  1.14476344E+01  3.29633588E+00  1.29653143E+00  5.92558930E-01  2.94896438E-01
  1.51447622E-01  8.02643074E+01  2.31120341E+01  9.09054165E+00  4.15468650E+00
  2.06764625E+00  1.06186467E+00  1.54719623E+01  4.45513742E+00  1.75231709E+00
  8.00868468E-01  3.98565014E-01  2.04687870E-01  1.14476344E+01  3.29633588E+00
  1.29653143E+00  5.92558930E-01  2.94896438E-01  1.51447622E-01  1.14476344E+01
  3.29633588E+00  1.29653143E+00  5.92558930E-01  2.94896438E-01  1.51447622E-01
  8.02643074E+01  2.31120341E+01  9.09054165E+00  4.15468650E+00  2.06764625E+00
  1.06186467E+00  1.54719623E+01  4.45513742E+00  1.75231709E+00  8.00868468E-01
  3.98565014E-01  2.04687870E-01  1.14476344E+01  3.29633588E+00  1.29653143E+00
  5.92558930E-01  2.94896438E-01  1.51447622E-01  1.14476344E+01  3.29633588E+00
  1.29653143E+00  5.92558930E-01  2.94896438E-01  1.51447622E-01  1.14476344E+01
  3.29633588E+00  1.29653143E+00  5.92558930E-01  2.94896438E-01  1.51447622E-01
  1.14476344E+01  3.29633588E+00  1.29653143E+00  5.92558930E-01  2.94896438E-01
  1.51447622E-01  8.02643074E+01  2.31120341E+01  9.09054165E+00  4.15468650E+00
  2.06764625E+00  1.06186467E+00  1.54719623E+01  4.45513742E+00  1.75231709E+00
  8.00868468E-01  3.98565014E-01  2.04687870E-01  1.14476344E+01  3.29633588E+00
  1.29653143E+00  5.92558930E-01  2.94896438E-01  1.51447622E-01  1.14476344E+01
  3.29633588E+00  1.29653143E+00  5.92558930E-01  2.94896438E-01  1.51447622E-01
  1.14476344E+01  3.29633588E+00  1.29653143E+00  5.92558930E-01  2.94896438E-01
  1.51447622E-01  1.14476344E+01  3.29633588E+00  1.29653143E+00  5.92558930E-01
  2.94896438E-01  1.51447622E-01  4.39461478E+00  1.26542531E+00  4.97723458E-01
  2.27476537E-01  1.13207340E-01  5.81389949E-02  4.39461478E+00  1.26542531E+00
  4.97723458E-01  2.27476537E-01  1.13207340E-01  5.81389949E-02  4.39461478E+00
  1.26542531E+00  4.97723458E-01  2.27476537E-01  1.13207340E-01  5.81389949E-02
  4.39461478E+00  1.26542531E+00  4.97723458E-01  2.27476537E-01  1.13207340E-01
  5.81389949E-02
Contraction coefficients                   R   N=         126
 -9.73739553E-03 -7.26587678E-02 -1.71615520E-01  1.28977624E-01  7.28861451E-01
  3.01331742E-01 -9.73739553E-03 -7.26587678E-02 -1.71615520E-01  1.28977624E-01
  7.28861451E-01  3.01331742E-01 -9.73739553E-03 -7.26587678E-02 -1.71615520E-01
  1.28977624E-01  7.28861451E-01  3.01331742E-01 -9.73739553E-03 -7.26587678E-02
 -1.71615520E-01  1.28977624E-01  7.28861451E-01  3.01331742E-01 -9.73739553E-03
 -7.26587678E-02 -1.71615520E-01  1.28977624E-01  7.28861451E-01  3.01331742E-01
 -9.73739553E-03 -7.26587678E-02 -1.71615520E-01  1.28977624E-01  7.28861451E-01
  3.01331742E-01 -9.73739553E-03 -7.26587678E-02 -1.71615520E-01  1.28977624E-01
  7.28861451E-01  3.01331742E-01 -9.73739553E-03 -7.26587678E-02 -1.71615520E-01
  1.28977624E-01  7.28861451E-01  3.01331742E-01 -9.73739553E-03 -7.26587678E-02
 -1.71615520E-01  1.28977624E-01  7.28861451E-01  3.01331742E-01 -9.73739553E-03
 -7.26587678E-02 -1.71615520E-01  1.28977624E-01  7.28861451E-01  3.01331742E-01
 -9.73739553E-03 -7.26587678E-02 -1.71615520E-01  1.28977624E-01  7.28861451E-01
  3.01331742E-01 -9.73739553E-03 -7.26587678E-02 -1.71615520E-01  1.28977624E-01
  7.28861451E-01  3.01331742E-01 -9.73739553E-03 -7.26587678E-02 -1.71615520E-01
  1.28977624E-01  7.28861451E-01  3.01331742E-01 -9.73739553E-03 -7.26587678E-02
 -1.71615520E-01  1.28977624E-01  7.28861451E-01  3.01331742E-01 -9.73739553E-03
 -7.26587678E-02 -1.71615520E-01  1.28977624E-01  7.28861451E-01  3.01331742E-01
 -9.73739553E-03 -7.26587678E-02 -1.71615520E-01  1.28977624E-01  7.28861451E-01
  3.01331742E-01 -9.73739553E-03 -7.26587678E-02 -1.71615520E-01  1.28977624E-01
  7.28861451E-01  3.01331742E-01 -9.73739553E-03 -7.26587678E-02 -1.71615520E-01
  1.28977624E-01  7.28861451E-01  3.01331742E-01 -9.73739553E-03 -7.26587678E-02
 -1.71615520E-01  1.28977624E-01  7.28861451E-01  3.01331742E-01 -9.73739553E-03
 -7.26587678E-02 -1.71615520E-01  1.28977624E-01  7.28861451E-01  3.01331742E-01
 -9.73739553E-03 -7.26587678E-02 -1.71615520E-01  1.28977624E-01  7.28861451E-01
  3.01331742E-01
P(S=P) Contraction coefficients            R   N=         126
 -8.10494336E-03 -1.71547892E-02  7.36978576E-02  3.96514999E-01  4.97808488E-01
  1.17482582E-01 -8.10494336E-03 -1.71547892E-02  7.36978576E-02  3.96514999E-01
  4.97808488E-01  1.17482582E-01 -8.10494336E-03 -1.71547892E-02  7.36978576E-02
  3.96514999E-01  4.97808488E-01  1.17482582E-01 -8.10494336E-03 -1.71547892E-02
  7.36978576E-02  3.96514999E-01  4.97808488E-01  1.17482582E-01 -8.10494336E-03
 -1.71547892E-02  7.36978576E-02  3.96514999E-01  4.97808488E-01  1.17482582E-01
 -8.10494336E-03 -1.71547892E-02  7.36978576E-02  3.96514999E-01  4.97808488E-01
  1.17482582E-01 -8.10494336E-03 -1.71547892E-02  7.36978576E-02  3.96514999E-01
  4.97808488E-01  1.17482582E-01 -8.10494336E-03 -1.71547892E-02  7.36978576E-02
  3.96514999E-01  4.97808488E-01  1.17482582E-01 -8.10494336E-03 -1.71547892E-02
  7.36978576E-02  3.96514999E-01  4.97808488E-01  1.17482582E-01 -8.10494336E-03
 -1.71547892E-02  7.36978576E-02  3.96514999E-01  4.97808488E-01  1.17482582E-01
 -8.10494336E-03 -1.71547892E-02  7.36978576E-02  3.96514999E-01  4.97808488E-01
  1.17482582E-01 -8.10494336E-03 -1.71547892E-02  7.36978576E-02  3.96514999E-01
  4.97808488E-01  1.17482582E-01 -8.10494336E-03 -1.71547892E-02  7.36978576E-02
  3.96514999E-01  4.97808488E-01  1.17482582E-01 -8.10494336E-03 -1.71547892E-02
  7.36978576E-02  3.96514999E-01  4.97808488E-01  1.17482582E-01 -8.10494336E-03
 -1.71547892E-02  7.36978576E-02  3.96514999E-01  4.97808488E-01  1.17482582E-01
 -8.10494336E-03 -1.71547892E-02  7.36978576E-02  3.96514999E-01  4.97808488E-01
  1.17482582E-01 -8.10494336E-03 -1.71547892E-02  7.36978576E-02  3.96514999E-01
  4.97808488E-01  1.17482582E-01  0.00000000E+00  0.00000000E+00  0.00000000E+00
  0.00000000E+00  0.00000000E+00  0.00000000E+00  0.00000000E+00  0.00000000E+00
  0.00000000E+00  0.00000000E+00  0.00000000E+00  0.00000000E+00  0.00000000E+00
  0.00000000E+00  0.00000000E+00  0.00000000E+00  0.00000000E+00  0.00000000E+00
  0.00000000E+00  0.00000000E+00  0.00000000E+00  0.00000000E+00  0.00000000E+00
  0.00000000E+00
Coordinates of each shell                  R   N=          63
 -8.23352197E+00 -1.27178323E+00  4.89059840E+00 -7.95951145E+00 -3.53377771E+00
  4.70917921E+00 -6.38916554E+00  2.36197738E-01  5.58035747E+00 -3.89662390E+00
 -7.37002581E-01  6.18696184E+00 -3.09160432E+00  3.30694740E-01  8.69275385E+00
 -3.29569780E+00  2.56246921E+00  9.18783135E+00 -2.06925099E+00 -1.32281734E+00
  1.02328755E+01 -1.08091452E+00 -5.87715313E-01  1.26025806E+01 -1.87649655E+00
 -8.50409070E-02  4.15173145E+00  7.36992735E-01 -9.22167697E-01  4.98888638E+00
  1.58740020E+00 -1.61384263E+00  1.28350247E+01  1.94074633E+00 -3.82102870E+00
  1.26989638E+01  3.42041783E+00  3.75940225E-03  1.32715580E+01  6.03010801E+00
 -8.10679355E-01  1.34189358E+01 -2.66640190E+00 -1.72529932E+00  1.47342106E+01
 -1.37384193E+00 -1.21886880E+00  1.72399945E+01 -5.29123096E+00 -6.59519180E-01
  1.47190699E+01 -1.00259758E+01 -3.80173666E-01  4.60660208E+00 -2.39910842E+00
 -9.22555752E-01  2.38709046E+00  6.99792754E+00  1.12799453E-01  1.49351892E+01
  6.91777634E+00 -3.85127167E-01  1.16527358E+01
Num ILSW                                   I              100
ILSW                                       I   N=         100
           0           0           0           0           2           0
           0           0           0           0           0          -1
           5           0           0           0           0           0
           0           0           0           0           0           0
           1           1           0           0           0           0
           0           0      100000           0          -1           0
           0           0           0           0           0           0
           0           0           0          40           0           0
           0 -2000000000           1           0           0           0
           0           0           4          52           0           0
           0           1           0           0           0           0
           0           0           0          21           0           1
           0           0           0           0           0           0
           0           0           0           0           0           0
           0           0           0           0           0           0
           0           0           0           0           0           0
           0           0           0           0
Num RLSW                                   I               52
RLSW                                       R   N=          52
  1.00000000E+00  1.00000000E+00  1.00000000E+00  1.00000000E+00  1.00000000E+00
  0.00000000E+00  0.00000000E+00  1.00000000E+00  0.00000000E+00  0.00000000E+00
  0.00000000E+00  0.00000000E+00  1.00000000E+00  0.00000000E+00  0.00000000E+00
  0.00000000E+00  0.00000000E+00  1.00000000E+00  0.00000000E+00  0.00000000E+00
  0.00000000E+00  0.00000000E+00  1.00000000E+00  0.00000000E+00  0.00000000E+00
  0.00000000E+00  0.00000000E+00  1.00000000E+00  0.00000000E+00  0.00000000E+00
  0.00000000E+00  0.00000000E+00  1.00000000E+00  0.00000000E+00  0.00000000E+00
  0.00000000E+00  0.00000000E+00  0.00000000E+00  1.00000000E+00  1.00000000E+00
  0.00000000E+00  1.00000000E+00  0.00000000E+00  0.00000000E+00  0.00000000E+00
  0.00000000E+00  0.00000000E+00  0.00000000E+00  0.00000000E+00  0.00000000E+00
  0.00000000E+00  0.00000000E+00
MxBond                                     I                3
NBond                                      I   N=          21
           3           1           2           3           3           1
           2           3           3           1           3           1
           2           3           3           1           1           1
           1           1           1
IBond                                      I   N=          63
           2           3          18           1           0           0
           1           4           0           3           5           9
           4           6           7           5           0           0
           5           8           0           7          11          15
           4          10          19           9           0           0
           8          12          13          11           0           0
          11          14           0          13          20          21
           8          16          17          15           0           0
          15           0           0           1           0           0
           9           0           0          14           0           0
          14           0           0
RBond                                      R   N=          63
  2.00000000E+00  1.50000000E+00  1.00000000E+00  2.00000000E+00  0.00000000E+00
  0.00000000E+00  1.50000000E+00  1.00000000E+00  0.00000000E+00  1.00000000E+00
  1.00000000E+00  1.00000000E+00  1.00000000E+00  2.00000000E+00  1.50000000E+00
  2.00000000E+00  0.00000000E+00  0.00000000E+00  1.50000000E+00  1.00000000E+00
  0.00000000E+00  1.00000000E+00  1.00000000E+00  1.00000000E+00  1.00000000E+00
  1.00000000E+00  1.00000000E+00  1.00000000E+00  0.00000000E+00  0.00000000E+00
  1.00000000E+00  2.00000000E+00  1.50000000E+00  2.00000000E+00  0.00000000E+00
  0.00000000E+00  1.50000000E+00  1.00000000E+00  0.00000000E+00  1.00000000E+00
  1.00000000E+00  1.00000000E+00  1.00000000E+00  1.00000000E+00  1.00000000E+00
  1.00000000E+00  0.00000000E+00  0.00000000E+00  1.00000000E+00  0.00000000E+00
  0.00000000E+00  1.00000000E+00  0.00000000E+00  0.00000000E+00  1.00000000E+00
  0.00000000E+00  0.00000000E+00  1.00000000E+00  0.00000000E+00  0.00000000E+00
  1.00000000E+00  0.00000000E+00  0.00000000E+00
Virial Ratio                               R      1.018731154367506E+00
SCF Energy                                 R      2.922123258823831E+00
Total Energy                               R      2.922123258823831E+00
RMS Density                                R      5.176560413832919E-09
Job Status                                 I                1
Nuclear derivative order                   I                0
External E-field                           R   N=          35
  0.00000000E+00  0.00000000E+00  0.00000000E+00  0.00000000E+00  0.00000000E+00
  0.00000000E+00  0.00000000E+00  0.00000000E+00  0.00000000E+00  0.00000000E+00
  0.00000000E+00  0.00000000E+00  0.00000000E+00  0.00000000E+00  0.00000000E+00
  0.00000000E+00  0.00000000E+00  0.00000000E+00  0.00000000E+00  0.00000000E+00
  0.00000000E+00  0.00000000E+00  0.00000000E+00  0.00000000E+00  0.00000000E+00
  0.00000000E+00  0.00000000E+00  0.00000000E+00  0.00000000E+00  0.00000000E+00
  0.00000000E+00  0.00000000E+00  0.00000000E+00  0.00000000E+00  0.00000000E+00
IOpCl                                      I                0
IROHF                                      I                0
Alpha Orbital Energies                     R   N=          72
 -2.13594963E+00 -2.08686867E+00 -2.05978232E+00 -2.00833847E+00 -1.97767189E+00
 -1.96493453E+00 -1.89595227E+00 -1.86042862E+00 -1.79589157E+00 -1.77325314E+00
 -1.71123730E+00 -1.64861671E+00 -1.60782283E+00 -1.57985244E+00 -1.55020141E+00
 -1.51853002E+00 -1.47859087E+00 -1.47775234E+00 -1.46544684E+00 -1.45002810E+00
 -1.44251796E+00 -1.43246424E+00 -1.41749518E+00 -1.38054796E+00 -1.37291820E+00
 -1.36693365E+00 -1.33523246E+00 -1.32125182E+00 -1.29846007E+00 -1.28922157E+00
 -1.27648348E+00 -1.24909556E+00 -1.23088248E+00 -1.22439268E+00 -1.22145257E+00
 -1.20522234E+00 -1.18669705E+00 -1.17795395E+00 -1.01093948E+00 -9.96338318E-01
 -9.16677013E-01 -8.98244005E-01 -8.81785809E-01 -8.75610678E-01 -8.40396759E-01
 -8.33966258E-01 -8.28932562E-01 -8.19288883E-01 -8.13543304E-01 -8.05850165E-01
 -8.00753311E-01 -7.97680947E-01 -7.90673856E-01 -7.79595665E-01 -7.75189227E-01
 -7.65113000E-01 -7.58609258E-01 -7.50290514E-01 -7.32419562E-01 -7.25975832E-01
 -7.18793007E-01 -7.16494736E-01 -7.04664079E-01 -6.97050872E-01 -6.96378473E-01
 -6.85166775E-01 -6.72082134E-01 -6.69847713E-01 -6.62815326E-01 -6.47592359E-01
 -6.40600184E-01 -5.91777671E-01
Alpha MO coefficients                      R   N=        5184
 -1.76632703E-03 -8.19993244E-04  2.94672856E-04 -2.25126589E-04 -1.49213263E-03
 -1.13041129E-04 -8.71336692E-04 -1.55164683E-04 -2.79614490E-03 -5.94987722E-04
  9.25718396E-04 -1.37979700E-04 -2.18936037E-03  1.20922026E-03 -5.42886417E-04
  5.59497208E-04  6.38571631E-03  6.91376421E-03 -3.23440200E-03  8.14063062E-03
  6.23023003E-04  1.49551752E-03 -2.02386070E-03  1.10822039E-03  4.85545389E-02
  2.34824569E-02  2.54117562E-03  2.48662582E-02  1.06778334E-01  7.07930409E-02
 -5.32723815E-02 -1.51307959E-03 -7.03786525E-04  4.72565407E-04  7.15650462E-05
 -8.45549806E-05  1.51439791E-04  9.81155029E-05 -5.30042468E-05  4.68675455E-04
  4.97838192E-01  1.10738013E-01 -2.46719362E-01 -7.42702804E-03  6.62133891E-01
 -2.82503197E-02  3.02813852E-01  1.93457184E-02  2.76469978E-01 -4.33696885E-02
 -1.57097675E-01 -2.71816807E-02  1.02750686E-01 -7.71044897E-02 -1.80968284E-03
 -1.40254796E-02  2.83352271E-02  2.95134738E-02  1.10977030E-03 -1.62756717E-02
  1.18018295E-02  4.21806122E-03 -1.92884961E-03 -1.23558568E-02 -3.47439608E-04
  2.63039393E-03 -3.95768073E-04 -1.36624305E-03 -3.93645342E-04 -5.00782759E-04
  2.27151323E-02  3.84387062E-02  4.92939024E-01  1.34197876E-01 -2.17309192E-01
  1.57497608E-02  6.36267423E-01 -5.45169447E-03  2.90248929E-01  3.36092378E-02
  3.40928645E-01 -4.52260872E-02 -1.73830795E-01 -3.37765628E-02  1.40244348E-01
 -9.08708039E-02  1.07639814E-02 -2.45408120E-02  5.17949037E-02 -1.55359759E-02
  2.67876562E-04 -1.77440186E-02  2.70642060E-02 -1.49232962E-03 -2.00789019E-02
 -7.88593470E-03  1.92501027E-02 -6.70900527E-03  8.60114698E-03 -7.54123979E-03
  3.41135038E-03 -1.97373024E-03  3.04256297E-04 -3.69529104E-03  3.92483024E-02
 -2.64939942E-02 -8.47196054E-03  8.67389217E-03  5.87767877E-03 -7.00057385E-03
  5.58332542E-04 -7.17337361E-04  1.41818866E-03 -2.78240235E-05 -8.22823186E-04
 -4.06328373E-04  2.25132370E-03 -1.00001638E-04  8.95122727E-04 -1.87203987E-05
  5.04207600E-04 -6.13327628E-05 -3.46297948E-04 -1.09868808E-04  2.16737090E-04
 -1.59911009E-04 -1.11975141E-05 -4.48673080E-05  3.37299377E-04 -1.04574611E-04
  2.80476602E-04 -7.59127385E-04 -1.71932602E-04  5.12291568E-06  2.45128970E-05
  2.76551415E-05  3.10325792E-04  2.11454841E-04  1.92461971E-05 -3.22726922E-04
  1.19978589E-01  3.34254348E-02  4.31617029E-05  9.26256382E-05 -3.93408595E-02
  3.83505959E-03  3.51205555E-02  7.60082116E-03 -7.97604309E-02  4.62158328E-03
 -2.91533305E-02 -1.33953677E-03  4.34645915E-02  4.26175500E-02  2.72177045E-03
  2.57506386E-02  1.47543555E-01  3.08609736E-02  5.59725461E-02  8.68495229E-02
  5.30022230E-01  4.36997122E-02  1.20732069E-01  1.27987058E-01  4.84847244E-01
  3.83456489E-02 -2.73734889E-01 -3.61914738E-02  4.63793605E-01 -4.28498994E-02
  1.94009304E-01 -2.38662420E-02  1.89544158E-01 -5.65425770E-02 -6.65278053E-03
 -1.17185665E-01  5.12715900E-02 -1.24337504E-02 -2.24240763E-03  3.67043376E-02
  2.23715091E-02 -1.74226615E-02  4.54339163E-03  6.18091419E-03  1.58468688E-02
 -5.32921281E-02  2.95244383E-02 -1.79820172E-02 -4.35694653E-02 -1.16504210E-02
 -7.18740936E-03 -5.63025495E-03 -2.01788478E-02 -1.30567124E-02  1.10178128E-02
 -2.92728296E-03 -1.72077811E-02  8.52503520E-03 -1.41366403E-03  9.97351700E-04
  4.33195935E-02  8.02885461E-03  1.68787471E-02 -3.93730823E-02  3.21201665E-03
 -1.17575500E-03  9.15643041E-04 -6.59349148E-03  1.83013267E-02  1.40642959E-02
 -1.05375929E-03 -9.96769255E-03 -1.15239678E-02  1.90571262E-02 -4.98550791E-03
 -6.48205825E-03  1.94635370E-04 -4.01055769E-04 -1.02121964E-03 -2.56344980E-04
  1.83001321E-03 -1.78690259E-04  4.29756018E-04 -9.78662503E-06 -1.57963327E-03
 -4.28787249E-04  4.47251433E-04 -1.96496664E-04 -2.37855193E-03  2.04750062E-05
  1.23033362E-04 -6.93614464E-04 -8.39422008E-04  8.26360484E-04  5.28972083E-03
  4.56681990E-04  5.93261004E-03  8.93628221E-04 -1.26801975E-03 -4.02039584E-04
 -1.01168195E-02  4.28014456E-03  5.96462760E-03 -7.34576143E-04  4.19001398E-02
  5.24006817E-02  2.32421759E-02  1.10752083E-02 -9.17483545E-04  2.35788888E-04
  2.75059625E-04 -2.78078649E-04 -2.78772742E-04  3.42299800E-04  2.77907720E-05
  9.83624172E-05  1.78975564E-01  1.74944290E-01  3.51082396E-01  5.26616991E-02
 -4.26084681E-01  6.87436879E-02 -2.21665205E-02  5.70246890E-03  6.55221339E-01
  1.11445723E-02 -1.78805345E-01 -3.42992669E-02  3.17472632E-01 -1.62841417E-01
  4.68556515E-02 -3.23477022E-02  1.76707225E-04  6.24625160E-03  7.21435426E-03
  2.51451328E-03  5.54230370E-03  2.87295938E-03  2.22509547E-03 -3.98654684E-03
 -1.91106601E-03 -2.74206370E-04  1.18439794E-03  7.37434085E-04  6.40509258E-05
 -6.13243950E-04  9.13166679E-02  1.32256330E-01  8.28444499E-02  1.35288278E-01
  2.73012969E-01  6.92300548E-02 -4.08313524E-01  4.97583281E-02 -5.29641172E-02
  9.82830548E-03  5.17450014E-01  4.48988748E-02 -1.26652226E-01 -9.63207117E-03
  3.10056082E-01 -1.13362180E-01  7.46661750E-02 -5.89146241E-02  3.98742323E-02
 -9.39748256E-02  1.16754091E-01 -1.43648771E-01  1.62050026E-01 -1.81346804E-02
 -4.38802135E-02 -5.39883741E-02 -3.12201549E-01 -2.20915893E-02 -7.01665369E-02
 -6.71047996E-02 -2.15907175E-01  3.05460988E-02  3.39583267E-02  7.45329478E-02
  1.65813673E-01 -5.93953624E-02 -2.75304419E-02  2.74190053E-02  4.68685711E-02
 -3.61456497E-02  6.21765057E-03 -8.15008630E-03 -4.62933116E-02  7.82477199E-02
 -4.18240109E-02  1.57680930E-02  5.98539323E-02  2.26321820E-02  1.59638835E-06
  5.04900182E-03  2.68307009E-02  3.32900446E-02 -1.19391834E-02  4.37487717E-03
  3.68417433E-02 -1.37462586E-02  4.62936773E-03 -2.63070781E-03 -7.58964943E-02
 -2.03931201E-02 -2.27889860E-02  4.41094888E-02 -1.79326092E-02  2.97670621E-03
 -6.04107518E-04  1.66495654E-02 -2.68577597E-02 -2.05085355E-02  3.18048320E-03
  8.17436767E-03  2.86312798E-02  1.26320139E-01  1.16210810E-02  1.56608523E-02
 -6.43067260E-02 -7.76741839E-02 -1.51378944E-01 -3.86625242E-02  2.19458089E-01
 -2.77199323E-02  2.10047726E-02 -6.40073384E-03 -2.73928679E-01  9.38717709E-04
  8.21996063E-02  1.77584113E-02 -1.69327649E-01  4.11678177E-02  9.80116302E-03
  2.22559203E-02  2.08474846E-02 -7.54788419E-02  3.63036311E-01 -1.23931981E-02
  5.54698426E-01  2.64704540E-03 -1.35898656E-01 -5.20168315E-02 -4.31068437E-01
 -1.02793288E-02 -6.74071799E-02 -3.87567548E-02 -2.60867116E-01  3.24838491E-02