Atom number=14                                                          
SP        RPM6                                                        ZDO                 
Number of atoms                            I               14
Info1-9                                    I   N=           9
          81          80           0           0           0         111
           1           8        2302
Full Title                                 C   N=           2
Atom number=14          
Route                                      C   N=           3
#p int=acc2e=12 pm6 charge nosymm   
Charge                                     I                0
Multiplicity                               I                1
Number of electrons                        I               52
Number of alpha electrons                  I               26
Number of beta electrons                   I               26
Number of basis functions                  I               44
Number of independent functions            I               44
Number of point charges in /Mol/           I                0
Number of translation vectors              I                0
Atomic numbers                             I   N=          14
           6           8           7           6           6           8
           7           6           6           8           1           1
           1           1
Nuclear charges                            R   N=          14
  4.00000000E+00  6.00000000E+00  5.00000000E+00  4.00000000E+00  4.00000000E+00
  6.00000000E+00  5.00000000E+00  4.00000000E+00  4.00000000E+00  6.00000000E+00
  1.00000000E+00  1.00000000E+00  1.00000000E+00  1.00000000E+00
Current cartesian coordinates              R   N=          42
  5.68051218E+00  8.88105705E-02  2.71383843E+01  5.58979663E+00 -2.20909802E+00
  2.74293788E+01  6.57813976E+00  1.67618974E+00  2.88409774E+01  7.86693520E+00
  7.40760849E-01  3.10708616E+01  6.47042229E+00  1.82356233E+00  3.33177433E+01
  5.92618759E+00  3.98732110E+00  3.32818450E+01  5.99611037E+00  2.43768982E-01
  3.52377220E+01  4.83581805E+00  9.75114686E-01  3.76112468E+01  1.07487535E+01
  1.41732160E+00  3.09707433E+01  1.18372435E+01  2.45675281E-01  2.87918563E+01
  5.10687946E+00  9.47183098E-01  2.53998061E+01  1.17421866E+01  6.84445650E-01
  3.25721476E+01  5.89805766E+00  1.18303526E-01  3.91032367E+01  2.94698360E+00
  2.61315316E-01  3.77175812E+01
Number of symbols in /Mol/                 I                0
Int Atom Types                             I   N=          14
           0           0           0           0           0           0
           0           0           0           0           0           0
           0           0
Force Field                                I                0
Atom Types                                 C   N=          14
                                                            
                                                            
                                                
MM charges                                 R   N=          14
  0.00000000E+00  0.00000000E+00  0.00000000E+00  0.00000000E+00  0.00000000E+00
  0.00000000E+00  0.00000000E+00  0.00000000E+00  0.00000000E+00  0.00000000E+00
  0.00000000E+00  0.00000000E+00  0.00000000E+00  0.00000000E+00
Integer atomic weights                     I   N=          14
          12          16          14          12          12          16
          14          12          12          16           1           1
           1           1
Real atomic weights                        R   N=          14
  1.20000000E+01  1.59949146E+01  1.40030740E+01  1.20000000E+01  1.20000000E+01
  1.59949146E+01  1.40030740E+01  1.20000000E+01  1.20000000E+01  1.59949146E+01
  1.00782504E+00  1.00782504E+00  1.00782504E+00  1.00782504E+00
Atom fragment info                         I   N=          14
           0           0           0           0           0           0
           0           0           0           0           0           0
           0           0
Atom residue num                           I   N=          14
           0           0           0           0           0           0
           0           0           0           0           0           0
           0           0
Nuclear spins                              I   N=          14
           0           0           2           0           0           0
           2           0           0           0           1           1
           1           1
Nuclear ZEff                               R   N=          14
 -3.90000000E+00 -6.00000000E+00 -4.90000000E+00 -3.90000000E+00 -3.90000000E+00
 -6.00000000E+00 -4.90000000E+00 -3.90000000E+00 -3.90000000E+00 -6.00000000E+00
 -1.00000000E+00 -1.00000000E+00 -1.00000000E+00 -1.00000000E+00
Nuclear ZNuc                               R   N=          14
  6.00000000E+00  8.00000000E+00  7.00000000E+00  6.00000000E+00  6.00000000E+00
  8.00000000E+00  7.00000000E+00  6.00000000E+00  6.00000000E+00  8.00000000E+00
  1.00000000E+00  1.00000000E+00  1.00000000E+00  1.00000000E+00
Nuclear QMom                               R   N=          14
  0.00000000E+00  0.00000000E+00  2.04400000E+00  0.00000000E+00  0.00000000E+00
  0.00000000E+00  2.04400000E+00  0.00000000E+00  0.00000000E+00  0.00000000E+00
  0.00000000E+00  0.00000000E+00  0.00000000E+00  0.00000000E+00
Nuclear GFac                               R   N=          14
  0.00000000E+00  0.00000000E+00  4.03761000E-01  0.00000000E+00  0.00000000E+00
  0.00000000E+00  4.03761000E-01  0.00000000E+00  0.00000000E+00  0.00000000E+00
  2.79284600E+00  2.79284600E+00  2.79284600E+00  2.79284600E+00
MicOpt                                     I   N=          14
          -1          -1          -1          -1          -1          -1
          -1          -1          -1          -1          -1          -1
          -1          -1
Number of residues                         I                0
Number of secondary structures             I                0
Number of contracted shells                I               14
Number of primitive shells                 I               84
Pure/Cartesian d shells                    I                0
Pure/Cartesian f shells                    I                0
Highest angular momentum                   I                1
Largest degree of contraction              I                6
Shell types                                I   N=          14
          -1          -1          -1          -1          -1          -1
          -1          -1          -1          -1           0           0
           0           0
Number of primitives per shell             I   N=          14
           6           6           6           6           6           6
           6           6           6           6           6           6
           6           6
Shell to atom map                          I   N=          14
           1           2           3           4           5           6
           7           8           9          10          11          12
          13          14
Primitive exponents                        R   N=          84
  1.14476344E+01  3.29633588E+00  1.29653143E+00  5.92558930E-01  2.94896438E-01
  1.51447622E-01  8.02643074E+01  2.31120341E+01  9.09054165E+00  4.15468650E+00
  2.06764625E+00  1.06186467E+00  1.54719623E+01  4.45513742E+00  1.75231709E+00
  8.00868468E-01  3.98565014E-01  2.04687870E-01  1.14476344E+01  3.29633588E+00
  1.29653143E+00  5.92558930E-01  2.94896438E-01  1.51447622E-01  1.14476344E+01
  3.29633588E+00  1.29653143E+00  5.92558930E-01  2.94896438E-01  1.51447622E-01
  8.02643074E+01  2.31120341E+01  9.09054165E+00  4.15468650E+00  2.06764625E+00
  1.06186467E+00  1.54719623E+01  4.45513742E+00  1.75231709E+00  8.00868468E-01
  3.98565014E-01  2.04687870E-01  1.14476344E+01  3.29633588E+00  1.29653143E+00
  5.92558930E-01  2.94896438E-01  1.51447622E-01  1.14476344E+01  3.29633588E+00
  1.29653143E+00  5.92558930E-01  2.94896438E-01  1.51447622E-01  8.02643074E+01
  2.31120341E+01  9.09054165E+00  4.15468650E+00  2.06764625E+00  1.06186467E+00
  4.39461478E+00  1.26542531E+00  4.97723458E-01  2.27476537E-01  1.13207340E-01
  5.81389949E-02  4.39461478E+00  1.26542531E+00  4.97723458E-01  2.27476537E-01
  1.13207340E-01  5.81389949E-02  4.39461478E+00  1.26542531E+00  4.97723458E-01
  2.27476537E-01  1.13207340E-01  5.81389949E-02  4.39461478E+00  1.26542531E+00
  4.97723458E-01  2.27476537E-01  1.13207340E-01  5.81389949E-02
Contraction coefficients                   R   N=          84
 -9.73739553E-03 -7.26587678E-02 -1.71615520E-01  1.28977624E-01  7.28861451E-01
  3.01331742E-01 -9.73739553E-03 -7.26587678E-02 -1.71615520E-01  1.28977624E-01
  7.28861451E-01  3.01331742E-01 -9.73739553E-03 -7.26587678E-02 -1.71615520E-01
  1.28977624E-01  7.28861451E-01  3.01331742E-01 -9.73739553E-03 -7.26587678E-02
 -1.71615520E-01  1.28977624E-01  7.28861451E-01  3.01331742E-01 -9.73739553E-03
 -7.26587678E-02 -1.71615520E-01  1.28977624E-01  7.28861451E-01  3.01331742E-01
 -9.73739553E-03 -7.26587678E-02 -1.71615520E-01  1.28977624E-01  7.28861451E-01
  3.01331742E-01 -9.73739553E-03 -7.26587678E-02 -1.71615520E-01  1.28977624E-01
  7.28861451E-01  3.01331742E-01 -9.73739553E-03 -7.26587678E-02 -1.71615520E-01
  1.28977624E-01  7.28861451E-01  3.01331742E-01 -9.73739553E-03 -7.26587678E-02
 -1.71615520E-01  1.28977624E-01  7.28861451E-01  3.01331742E-01 -9.73739553E-03
 -7.26587678E-02 -1.71615520E-01  1.28977624E-01  7.28861451E-01  3.01331742E-01
 -9.73739553E-03 -7.26587678E-02 -1.71615520E-01  1.28977624E-01  7.28861451E-01
  3.01331742E-01 -9.73739553E-03 -7.26587678E-02 -1.71615520E-01  1.28977624E-01
  7.28861451E-01  3.01331742E-01 -9.73739553E-03 -7.26587678E-02 -1.71615520E-01
  1.28977624E-01  7.28861451E-01  3.01331742E-01 -9.73739553E-03 -7.26587678E-02
 -1.71615520E-01  1.28977624E-01  7.28861451E-01  3.01331742E-01
P(S=P) Contraction coefficients            R   N=          84
 -8.10494336E-03 -1.71547892E-02  7.36978576E-02  3.96514999E-01  4.97808488E-01
  1.17482582E-01 -8.10494336E-03 -1.71547892E-02  7.36978576E-02  3.96514999E-01
  4.97808488E-01  1.17482582E-01 -8.10494336E-03 -1.71547892E-02  7.36978576E-02
  3.96514999E-01  4.97808488E-01  1.17482582E-01 -8.10494336E-03 -1.71547892E-02
  7.36978576E-02  3.96514999E-01  4.97808488E-01  1.17482582E-01 -8.10494336E-03
 -1.71547892E-02  7.36978576E-02  3.96514999E-01  4.97808488E-01  1.17482582E-01
 -8.10494336E-03 -1.71547892E-02  7.36978576E-02  3.96514999E-01  4.97808488E-01
  1.17482582E-01 -8.10494336E-03 -1.71547892E-02  7.36978576E-02  3.96514999E-01
  4.97808488E-01  1.17482582E-01 -8.10494336E-03 -1.71547892E-02  7.36978576E-02
  3.96514999E-01  4.97808488E-01  1.17482582E-01 -8.10494336E-03 -1.71547892E-02
  7.36978576E-02  3.96514999E-01  4.97808488E-01  1.17482582E-01 -8.10494336E-03
 -1.71547892E-02  7.36978576E-02  3.96514999E-01  4.97808488E-01  1.17482582E-01
  0.00000000E+00  0.00000000E+00  0.00000000E+00  0.00000000E+00  0.00000000E+00
  0.00000000E+00  0.00000000E+00  0.00000000E+00  0.00000000E+00  0.00000000E+00
  0.00000000E+00  0.00000000E+00  0.00000000E+00  0.00000000E+00  0.00000000E+00
  0.00000000E+00  0.00000000E+00  0.00000000E+00  0.00000000E+00  0.00000000E+00
  0.00000000E+00  0.00000000E+00  0.00000000E+00  0.00000000E+00
Coordinates of each shell                  R   N=          42
  5.68051218E+00  8.88105705E-02  2.71383843E+01  5.58979663E+00 -2.20909802E+00
  2.74293788E+01  6.57813976E+00  1.67618974E+00  2.88409774E+01  7.86693520E+00
  7.40760849E-01  3.10708616E+01  6.47042229E+00  1.82356233E+00  3.33177433E+01
  5.92618759E+00  3.98732110E+00  3.32818450E+01  5.99611037E+00  2.43768982E-01
  3.52377220E+01  4.83581805E+00  9.75114686E-01  3.76112468E+01  1.07487535E+01
  1.41732160E+00  3.09707433E+01  1.18372435E+01  2.45675281E-01  2.87918563E+01
  5.10687946E+00  9.47183098E-01  2.53998061E+01  1.17421866E+01  6.84445650E-01
  3.25721476E+01  5.89805766E+00  1.18303526E-01  3.91032367E+01  2.94698360E+00
  2.61315316E-01  3.77175812E+01
Num ILSW                                   I              100
ILSW                                       I   N=         100
           0           0           0           0           2           0
           0           0           0           0           0          -1
           5           0           0           0           0           0
           0           0           0           0           0           0
           1           1           0           0           0           0
           0           0      100000           0          -1           0
           0           0           0           0           0           0
           0           0           0          40           0           0
           0 -2000000000           1           0           0           0
           0           0           4          52           0           0
           0           1           0           0           0           0
           0           0           0          14           0           1
           0           0           0           0           0           0
           0           0           0           0           0           0
           0           0           0           0           0           0
           0           0           0           0           0           0
           0           0           0           0
Num RLSW                                   I               52
RLSW                                       R   N=          52
  1.00000000E+00  1.00000000E+00  1.00000000E+00  1.00000000E+00  1.00000000E+00
  0.00000000E+00  0.00000000E+00  1.00000000E+00  0.00000000E+00  0.00000000E+00
  0.00000000E+00  0.00000000E+00  1.00000000E+00  0.00000000E+00  0.00000000E+00
  0.00000000E+00  0.00000000E+00  1.00000000E+00  0.00000000E+00  0.00000000E+00
  0.00000000E+00  0.00000000E+00  1.00000000E+00  0.00000000E+00  0.00000000E+00
  0.00000000E+00  0.00000000E+00  1.00000000E+00  0.00000000E+00  0.00000000E+00
  0.00000000E+00  0.00000000E+00  1.00000000E+00  0.00000000E+00  0.00000000E+00
  0.00000000E+00  0.00000000E+00  0.00000000E+00  1.00000000E+00  1.00000000E+00
  0.00000000E+00  1.00000000E+00  0.00000000E+00  0.00000000E+00  0.00000000E+00
  0.00000000E+00  0.00000000E+00  0.00000000E+00  0.00000000E+00  0.00000000E+00
  0.00000000E+00  0.00000000E+00
MxBond                                     I                3
NBond                                      I   N=          14
           3           1           2           3           3           1
           2           3           3           1           1           1
           1           1
IBond                                      I   N=          42
           2           3          11           1           0           0
           1           4           0           3           5           9
           4           6           7           5           0           0
           5           8           0           7          13          14
           4          10          12           9           0           0
           1           0           0           9           0           0
           8           0           0           8           0           0
RBond                                      R   N=          42
  2.00000000E+00  1.50000000E+00  1.00000000E+00  2.00000000E+00  0.00000000E+00
  0.00000000E+00  1.50000000E+00  1.00000000E+00  0.00000000E+00  1.00000000E+00
  1.00000000E+00  1.00000000E+00  1.00000000E+00  2.00000000E+00  1.50000000E+00
  2.00000000E+00  0.00000000E+00  0.00000000E+00  1.50000000E+00  1.00000000E+00
  0.00000000E+00  1.00000000E+00  1.00000000E+00  1.00000000E+00  1.00000000E+00
  1.00000000E+00  1.00000000E+00  1.00000000E+00  0.00000000E+00  0.00000000E+00
  1.00000000E+00  0.00000000E+00  0.00000000E+00  1.00000000E+00  0.00000000E+00
  0.00000000E+00  1.00000000E+00  0.00000000E+00  0.00000000E+00  1.00000000E+00
  0.00000000E+00  0.00000000E+00
Virial Ratio                               R      9.737826469918561E-01
SCF Energy                                 R     -2.944262170750562E+00
Total Energy                               R     -2.944262170750562E+00
RMS Density                                R      3.786883350970117E-09
Job Status                                 I                1
Nuclear derivative order                   I                0
External E-field                           R   N=          35
  0.00000000E+00  0.00000000E+00  0.00000000E+00  0.00000000E+00  0.00000000E+00
  0.00000000E+00  0.00000000E+00  0.00000000E+00  0.00000000E+00  0.00000000E+00
  0.00000000E+00  0.00000000E+00  0.00000000E+00  0.00000000E+00  0.00000000E+00
  0.00000000E+00  0.00000000E+00  0.00000000E+00  0.00000000E+00  0.00000000E+00
  0.00000000E+00  0.00000000E+00  0.00000000E+00  0.00000000E+00  0.00000000E+00
  0.00000000E+00  0.00000000E+00  0.00000000E+00  0.00000000E+00  0.00000000E+00
  0.00000000E+00  0.00000000E+00  0.00000000E+00  0.00000000E+00  0.00000000E+00
IOpCl                                      I                0
IROHF                                      I                0
Alpha Orbital Energies                     R   N=          44
 -1.41991426E+00 -1.38820377E+00 -1.33879679E+00 -1.29930532E+00 -1.28524116E+00
 -1.21362683E+00 -1.14503718E+00 -1.08350198E+00 -9.54995152E-01 -9.26238637E-01
 -8.34834578E-01 -8.10046021E-01 -7.91367521E-01 -7.83498796E-01 -7.68311860E-01
 -7.55757871E-01 -7.20478867E-01 -7.04277920E-01 -6.97113218E-01 -6.57907615E-01
 -6.43826788E-01 -6.22968241E-01 -5.89106219E-01 -5.65503136E-01 -5.54113921E-01
 -5.38890716E-01 -3.33562799E-01 -2.76566333E-01 -2.39283921E-01 -2.31757499E-01
 -1.68131909E-01 -1.46078813E-01 -1.42479601E-01 -1.23192071E-01 -1.16425917E-01
 -1.03048603E-01 -7.20101281E-02 -3.13782214E-02 -2.86874013E-02 -1.14313499E-03
  2.95012193E-04  7.77696146E-03  2.72142443E-02  6.10210426E-02
Alpha MO coefficients                      R   N=        1936
  1.18640429E-01  2.05167076E-02 -1.91407466E-03  5.40668396E-02  7.12998891E-02
  7.40737495E-03  5.49892564E-02  5.73667997E-03  2.18852503E-01  8.17141861E-03
 -5.59810002E-02  4.90366439E-02  2.30705078E-01 -6.20527572E-02  7.68491854E-02
  3.11079123E-02  5.18331672E-01 -5.78170207E-02  2.10960746E-01  1.36494132E-02
  5.59672017E-01  7.91805148E-02 -3.10764623E-01  7.02694512E-03  2.68047775E-01
  1.99148108E-04  1.30776434E-01 -7.14249521E-02  7.88138681E-02  2.41301046E-02
  3.45652337E-03 -6.16277459E-02  9.48346616E-02 -4.32515464E-02 -1.14126210E-02
  1.22405278E-02  2.47319116E-02 -1.39874175E-02  7.48825263E-03  1.91253282E-02
  3.02055116E-02  7.22284053E-02  2.08693145E-02  2.25241943E-02  4.82283945E-01
  5.55693144E-02 -7.72163164E-02  1.47040299E-01  3.83641420E-01  2.49740325E-02
  2.48902900E-01  2.71838656E-03  5.12530270E-01 -2.08585050E-02 -1.95494906E-01
 -4.52780180E-02  1.96962665E-01 -3.44256207E-02  5.53018213E-03 -1.46196942E-01
 -1.34703657E-01  4.71392808E-02 -9.81928772E-02 -7.89614028E-02 -2.17166604E-01
 -1.98809149E-02  1.00430080E-01 -2.45380626E-02 -1.19661361E-01  6.92603378E-03
 -5.53423795E-02  8.71112893E-03 -4.83823387E-02 -1.26824077E-02  8.72310218E-04
  3.06214167E-02  1.06957754E-01 -2.63650453E-02 -2.92534940E-02 -2.68914507E-02
  8.33289084E-02 -2.86483440E-02  1.62990455E-02  3.60401071E-02  1.37231792E-01
  6.67964358E-02 -1.45177259E-02 -1.44843113E-02 -1.64233511E-01  1.13577001E-02
  9.17511869E-02 -1.52961957E-02 -2.27164780E-01 -2.25528673E-03 -1.10380135E-01
  1.21180482E-02 -5.62880656E-04  6.10468695E-02  2.84696391E-02  6.17495637E-02
  2.00085806E-01  1.28514614E-01  2.38688609E-02  4.07913842E-03 -1.44773996E-03
  5.81082374E-02 -6.67308778E-02 -3.79531167E-02 -1.08827607E-01  4.55066199E-03
  3.22632536E-02 -1.22595130E-02 -1.14289082E-02  1.54108835E-02 -1.23558974E-02
 -1.22806102E-02 -1.63647926E-02 -1.90273842E-03  4.52466897E-04  7.75131961E-03
  5.01880078E-01  6.12214667E-02 -1.40148373E-01 -4.68095516E-02  5.19790603E-01
 -8.89699807E-02  7.98611974E-02  2.05248865E-01 -5.15570980E-02  4.52444410E-01
 -5.00700745E-03 -5.66876369E-03  3.56069130E-02 -1.55453888E-02 -8.29882629E-02
 -1.40699930E-02  1.40645497E-01 -1.81504949E-03  4.75778501E-02 -1.15661594E-02
 -1.02237362E-01 -1.12439805E-02  1.13495595E-03 -1.81741497E-02 -4.04064102E-03
  1.71856827E-03 -4.06715757E-02  7.34534104E-02  1.38513320E-01 -6.29346980E-03
 -3.33679846E-01  2.14500564E-01 -3.89105057E-01 -3.82770352E-02  5.13993130E-02
  6.05032537E-02  6.73724403E-01 -2.66877000E-02  1.43664583E-01 -1.09455086E-02
  3.00814144E-01  6.53582619E-02 -4.53467770E-02 -1.42555047E-01  5.05074269E-03
  1.00804038E-02 -8.32545646E-03  1.58778439E-02 -3.27494890E-03  3.84132974E-03
 -2.32633558E-03  2.94846573E-03  8.82277115E-03  2.79058766E-02  1.08533684E-01
  9.92775689E-02  8.00312217E-02 -7.38703958E-02 -3.59104207E-01 -8.62474375E-02
  5.77437021E-01 -1.07621659E-02  1.71588747E-01 -5.36501681E-02 -4.69178748E-01
 -1.78582883E-02  6.57766401E-02 -4.36800976E-02 -2.35506224E-01  9.55480394E-02
 -4.98196356E-02  8.26845111E-02 -4.50235668E-02 -3.83048859E-02  1.35048142E-01
  4.64357654E-02  1.90398895E-01  5.78102666E-03 -3.03971033E-02  2.01591592E-02
 -8.89821929E-02 -6.02391385E-03 -6.91700809E-03  2.61436498E-02 -2.13681889E-02
 -5.68056893E-03  5.95809320E-03  1.23802263E-02  8.78955160E-02  1.09093353E-01
 -4.71729580E-02 -3.58740933E-02  2.68145264E-01 -1.31759332E-02  2.73218103E-02
  6.99455006E-02  1.58707159E-02  1.14868134E-01 -7.84574216E-03 -7.13413656E-03
  9.73008887E-02  2.54146106E-02  1.43220763E-01  3.11229780E-02 -1.68895287E-01
  6.60819057E-03 -7.15006473E-03  1.32673842E-02  1.48525365E-01 -6.47481611E-02
 -4.17619658E-02 -1.21050078E-01 -2.52046518E-01 -7.32459280E-02 -4.46691294E-02
 -1.07762784E-01 -9.02206343E-02 -1.01089671E-01  7.77516057E-02  9.77944757E-02
  1.07613692E-01 -3.17240376E-02  3.20408968E-03  3.58367083E-02  9.37133912E-02
 -5.34952880E-02  2.14093780E-02  8.42539168E-02  1.30496128E-01  1.35784558E-02
 -2.05280497E-02 -3.38074888E-02 -2.27575184E-01  1.09831912E-01 -2.50951120E-02
 -2.78918706E-01  6.48632014E-01 -1.93844289E-02  3.32245201E-02  7.93633149E-03
  5.31181037E-02 -3.95013417E-01  5.31544056E-02  4.90241958E-02  1.99428869E-01
  1.65512249E-02  1.65752634E-01  3.10630223E-03 -1.70500008E-01  3.76918104E-03
  3.52497416E-02 -1.85596822E-03  7.74689421E-02 -1.05858752E-01 -4.11112156E-02
 -2.46592855E-01 -3.26854198E-01  1.11193219E-01 -6.38716680E-02 -7.99527672E-02
 -2.58775913E-01 -9.13940563E-02  1.84462453E-01  1.21376292E-01  2.11028110E-01
 -3.50121017E-02  6.18396240E-02  5.39732387E-02  4.73212667E-02 -1.00347709E-01
 -1.04042925E-02  2.43299427E-01  3.13403248E-01  1.57228189E-02 -5.57552484E-02
 -2.62378192E-02  1.29046549E-01  1.31622100E-01 -1.27989650E-02  1.54987145E-01
 -2.63100231E-01  2.73721984E-02  2.28813673E-03  5.39138795E-02  1.18899048E-01
  3.99173588E-01  1.46723251E-01  1.27535684E-01 -2.49423406E-01  1.95743008E-02
 -1.59346675E-01  3.76637297E-02  1.70899311E-01  7.31568006E-03 -6.81153182E-02
  1.93471906E-02  4.37945813E-02  1.74117835E-01  2.76705216E-02  2.70179987E-01
  2.55381538E-01  1.76045156E-02  7.86917217E-02 -1.48288064E-01 -1.80191456E-01
  3.62928456E-02  1.18818917E-01 -1.68112087E-01  7.30866383E-02  8.09280477E-03
  6.46623491E-02 -7.03474781E-02 -6.30516499E-02 -1.25872812E-01 -8.10700578E-02
  3.21080909E-01  4.91404539E-01 -1.01236213E-02 -9.84583109E-02  3.90711551E-02
  4.57304587E-02 -1.44662207E-01  1.53972453E-02 -6.95837511E-02 -1.85461794E-02
 -5.03672497E-02  8.62260052E-03 -1.18448542E-02 -1.69240503E-01 -1.68007948E-01
  2.58431135E-01  2.20847980E-01  3.27303550E-01 -1.10178671E-01  9.86043392E-02
 -2.38188962E-01 -2.21465464E-01 -4.56250519E-02  1.58913318E-01 -1.21884792E-01
 -2.70152812E-01 -9.58517588E-02  2.81479880E-02 -1.59148343E-01  1.92118006E-01
  9.85174721E-02  1.62124258E-02  3.06231824E-01  1.61642393E-01  1.80865628E-01
 -1.59445737E-02 -2.06891459E-01 -1.14608911E-01  1.14670722E-01 -7.84606852E-02
 -1.01239813E-01 -1.76819487E-01  2.69070789E-02 -4.62063648E-02  3.24141201E-02
  2.32928411E-01 -5.39260874E-02 -3.88305436E-02  1.46754627E-01  5.76692849E-02
 -1.54729743E-01  2.18738715E-03 -5.93848862E-03  4.36044851E-02 -3.10313662E-02
 -1.18553791E-02 -3.02486541E-02  3.28200887E-01 -1.70626540E-01  1.67938204E-01
  1.33642009E-01  7.45021535E-02  3.30828024E-02  7.14498503E-03 -9.99223821E-02
 -5.80185221E-02  1.75531332E-02  4.04661611E-02 -5.26951624E-02 -8.64343599E-02
  1.56388877E-01 -1.44414291E-02 -9.60405044E-02  1.00279972E-01  3.75936395E-01
 -2.54058221E-02 -1.52013161E-01 -1.70770548E-01 -1.75640726E-02  3.60598288E-02
  1.99402527E-01  1.62254674E-01 -3.37777213E-02  1.36710854E-01  1.20338486E-01
  1.64221877E-01  1.27405609E-02  2.87421292E-02  3.55021813E-02 -1.77521842E-01
  7.20046872E-02  2.50456320E-02 -1.37988087E-01  3.43424720E-01 -2.82068092E-01
 -1.09184151E-02 -2.11313563E-01 -1.95505853E-01 -2.39303503E-01  1.19115407E-01
  1.41682152E-01  8.71140190E-02 -3.62437751E-01 -1.31073163E-01 -1.17558047E-01
  8.13718141E-02 -8.31716197E-02 -4.72369863E-02 -1.76923577E-01 -1.12206398E-01
 -4.28119978E-02  1.00775662E-01 -1.19259011E-01 -6.36607202E-02  7.29545260E-02
  1.42548929E-02  1.54856607E-01  1.91428999E-01 -4.81693965E-02  9.57860983E-03
 -1.40001733E-02 -1.98924322E-01  7.78948530E-02 -5.18604308E-02 -1.27551790E-01
  2.66807862E-01 -2.73548110E-02  3.20484456E-01 -1.12110903E-01  2.60882838E-01
 -2.92418291E-02 -1.41433511E-01  1.86192567E-01 -1.56378343E-01  1.38894289E-01
 -5.25120482E-02 -2.20824294E-01 -1.94904763E-01 -1.10676043E-01  7.66085030E-03
  2.19654285E-01  1.97993399E-01  1.38445252E-01 -2.24652369E-01 -2.85086697E-01
  1.48783216E-01  1.59120672E-01 -1.25783797E-01 -1.36811972E-01 -6.34245737E-02
  1.86609303E-01  5.84880937E-02  3.07238430E-01  9.03985897E-02  1.19046483E-01
 -8.05600513E-02  2.13180973E-01 -2.92637784E-02 -7.20446514E-02 -1.45557536E-01
 -3.02256571E-01  6.42588024E-02  2.49351468E-01 -1.21298748E-01  1.76232347E-01
 -1.25248022E-03  2.80227056E-01  4.59011853E-03  1.58662921E-01  9.42375691E-02
  2.11552393E-01  1.48308830E-01  1.64653844E-01 -3.48128935E-02  2.08988812E-01
  2.55429832E-02  2.35431952E-04  3.43481162E-02  5.86002574E-02  8.03050890E-03
  1.25518848E-01 -4.40114296E-02 -2.43248864E-01 -3.18952306E-02  1.82106127E-01
  1.46238924E-01  2.41327221E-02 -2.17369612E-01 -2.36676189E-01 -2.35335047E-01
 -1.11542426E-02  9.88591526E-02 -1.21972792E-02 -5.69590083E-02 -3.00618041E-02
  1.31942302E-01 -2.74850904E-01  2.32821145E-01 -4.39925185E-02 -2.75661103E-01
 -1.70864003E-01  2.42648669E-01  1.29252001E-01  3.10097676E-01 -3.46643553E-02
 -1.37643920E-01  1.13276776E-01  2.37803496E-01 -7.01656261E-02  2.35394909E-02
  1.66038704E-01  2.26286236E-01  1.25102710E-01 -2.43714986E-01  2.74013741E-01
 -2.12032052E-01  1.15495224E-01 -2.93281881E-02  7.63050109E-02  1.07887255E-01
  1.87771981E-01 -3.04499991E-02  1.40383758E-01  3.36996774E-02 -8.13570545E-02
  3.61132654E-03 -7.87101798E-02  1.15965027E-01  7.72968188E-02  7.82390061E-02
  5.75097979E-02 -2.73673818E-02 -1.61816875E-01  1.81394597E-01  3.74733862E-02
 -1.46789192E-02 -9.55731740E-02  4.27681934E-02  9.26105272E-02 -1.36728574E-01
 -1.43067568E-01 -1.64830483E-01  9.85811450E-02  1.71036185E-01 -1.30767316E-01
 -6.27974103E-02  2.87613969E-01 -8.66137472E-02  1.05742405E-01  7.35741682E-02
  1.00896958E-01 -6.53495979E-02 -2.78674396E-01  1.58594846E-02 -2.39976914E-01
  1.32728005E-02  2.62867644E-01 -9.06822450E-02 -1.87470797E-01 -1.62572961E-01
  2.68861785E-01 -1.97520840E-01 -6.32726867E-02  1.87409651E-01 -2.06060082E-01
  9.30162820E-02 -1.85900650E-01  8.99351489E-02  1.15118492E-01 -1.03314466E-01
 -1.75108570E-01 -3.28126171E-02  1.35492010E-01  1.09352354E-01  6.74019152E-03
 -2.15157375E-01 -2.39789429E-01  5.03641351E-02  1.19121096E-01  1.64619954E-02
  1.28063671E-01  5.94704112E-02  6.20332538E-02 -1.97539980E-01  1.96516591E-01
 -2.74349835E-01  7.92259577E-02  3.58624932E-01  1.02034221E-01 -1.60506006E-01
  9.95221677E-03 -2.00390024E-01  7.01959226E-02 -1.86457658E-02 -1.94653395E-02
 -9.38257268E-03 -7.46804899E-02  1.60358851E-02  8.31165586E-02  2.69447122E-01
 -4.72011295E-02 -2.90351612E-01  2.35940602E-01 -3.31566566E-01 -1.48691407E-02
  6.90373267E-03 -5.74494481E-02  5.14938916E-02  3.37485135E-01 -7.10938877E-02
  1.96933284E-01  5.98497665E-03 -2.47966852E-01 -1.20754335E-02  2.81685568E-02
  3.26935576E-03 -1.07475555E-02 -8.24243828E-03  5.25520939E-04  1.23541723E-02
  1.07694527E-02 -1.67171482E-01  1.20228853E-02 -9.38339246E-02 -1.46257451E-01
  2.05325675E-02 -4.95630106E-02 -1.51066203E-01 -9.15249822E-02 -1.62669504E-01
 -2.28631767E-02  1.99351633E-01 -1.11159064E-01  2.45907779E-02  1.11378426E-01
 -8.96086125E-03  2.29568623E-01 -2.52821637E-02 -1.84728779E-01  3.13692299E-02
 -1.25599504E-01 -1.27876311E-03  2.93111485E-01 -3.93373159E-02  2.25598459E-01
  1.25553937E-01  2.71388697E-01  2.46599397E-01  2.16526253E-01 -7.94460703E-03
  3.66037002E-01  4.56480957E-02 -7.41781487E-02  2.72014515E-02  1.73750404E-01
  7.42533376E-03  2.92209972E-01 -6.33631468E-02  2.16115165E-01  1.87312014E-02
 -1.08439540E-01 -6.97620120E-02  4.55233091E-02  1.49684610E-01  1.49382840E-01
  2.67564217E-02  3.31556151E-02  2.32983574E-01 -7.39503816E-02 -7.86226187E-04
  5.21025366E-01 -1.59382370E-02 -1.90275991E-01  2.77419639E-02  5.88705778E-01
 -8.18972684E-02 -1.96760331E-01 -3.39202068E-02  3.18732737E-01 -4.52045630E-02
 -2.14982347E-01 -1.82441506E-02 -5.77144448E-02 -3.75097785E-02  2.35683492E-02
  4.26102600E-02  1.97762659E-02 -3.21762690E-02 -1.45602766E-01  1.19909113E-02
  2.40840426E-02 -1.16004850E-02 -2.11552347E-01  7.46065070E-02  1.67985056E-02
 -1.17794263E-01 -3.24344040E-03 -2.56772341E-02  4.46844801E-02 -6.15906772E-02