 Entering Gaussian System, Link 0=g16
 Input=NCCONCCOCCCNCCOCCCNCCOCCNCCNNCCONCCOCCCNCCOCOCNCCOCOCNCCOCCCNCCOCO_8.gjf
 Output=NCCONCCOCCCNCCOCCCNCCOCCNCCNNCCONCCOCCCNCCOCOCNCCOCOCNCCOCCCNCCOCO_8.log
 Initial command:
 /work/01114/jfonner/frontera/gaussian/16rC.01/g16/l1.exe "/tmp/Gau-50033.inp" -scrdir="/tmp/"
 Entering Link 1 = /work/01114/jfonner/frontera/gaussian/16rC.01/g16/l1.exe PID=     50034.
  
 Copyright (c) 1988-2019, Gaussian, Inc.  All Rights Reserved.
  
 This is part of the Gaussian(R) 16 program.  It is based on
 the Gaussian(R) 09 system (copyright 2009, Gaussian, Inc.),
 the Gaussian(R) 03 system (copyright 2003, Gaussian, Inc.),
 the Gaussian(R) 98 system (copyright 1998, Gaussian, Inc.),
 the Gaussian(R) 94 system (copyright 1995, Gaussian, Inc.),
 the Gaussian 92(TM) system (copyright 1992, Gaussian, Inc.),
 the Gaussian 90(TM) system (copyright 1990, Gaussian, Inc.),
 the Gaussian 88(TM) system (copyright 1988, Gaussian, Inc.),
 the Gaussian 86(TM) system (copyright 1986, Carnegie Mellon
 University), and the Gaussian 82(TM) system (copyright 1983,
 Carnegie Mellon University). Gaussian is a federally registered
 trademark of Gaussian, Inc.
  
 This software contains proprietary and confidential information,
 including trade secrets, belonging to Gaussian, Inc.
  
 This software is provided under written license and may be
 used, copied, transmitted, or stored only in accord with that
 written license.
  
 The following legend is applicable only to US Government
 contracts under FAR:
  
                    RESTRICTED RIGHTS LEGEND
  
 Use, reproduction and disclosure by the US Government is
 subject to restrictions as set forth in subparagraphs (a)
 and (c) of the Commercial Computer Software - Restricted
 Rights clause in FAR 52.227-19.
  
 Gaussian, Inc.
 340 Quinnipiac St., Bldg. 40, Wallingford CT 06492
  
  
 ---------------------------------------------------------------
 Warning -- This program may not be used in any manner that
 competes with the business of Gaussian, Inc. or will provide
 assistance to any competitor of Gaussian, Inc.  The licensee
 of this program is prohibited from giving any competitor of
 Gaussian, Inc. access to this program.  By using this program,
 the user acknowledges that Gaussian, Inc. is engaged in the
 business of creating and licensing software in the field of
 computational chemistry and represents and warrants to the
 licensee that it is not a competitor of Gaussian, Inc. and that
 it will not use this program in any manner prohibited above.
 ---------------------------------------------------------------
  

 Cite this work as:
 Gaussian 16, Revision C.01,
 M. J. Frisch, G. W. Trucks, H. B. Schlegel, G. E. Scuseria, 
 M. A. Robb, J. R. Cheeseman, G. Scalmani, V. Barone, 
 G. A. Petersson, H. Nakatsuji, X. Li, M. Caricato, A. V. Marenich, 
 J. Bloino, B. G. Janesko, R. Gomperts, B. Mennucci, H. P. Hratchian, 
 J. V. Ortiz, A. F. Izmaylov, J. L. Sonnenberg, D. Williams-Young, 
 F. Ding, F. Lipparini, F. Egidi, J. Goings, B. Peng, A. Petrone, 
 T. Henderson, D. Ranasinghe, V. G. Zakrzewski, J. Gao, N. Rega, 
 G. Zheng, W. Liang, M. Hada, M. Ehara, K. Toyota, R. Fukuda, 
 J. Hasegawa, M. Ishida, T. Nakajima, Y. Honda, O. Kitao, H. Nakai, 
 T. Vreven, K. Throssell, J. A. Montgomery, Jr., J. E. Peralta, 
 F. Ogliaro, M. J. Bearpark, J. J. Heyd, E. N. Brothers, K. N. Kudin, 
 V. N. Staroverov, T. A. Keith, R. Kobayashi, J. Normand, 
 K. Raghavachari, A. P. Rendell, J. C. Burant, S. S. Iyengar, 
 J. Tomasi, M. Cossi, J. M. Millam, M. Klene, C. Adamo, R. Cammi, 
 J. W. Ochterski, R. L. Martin, K. Morokuma, O. Farkas, 
 J. B. Foresman, and D. J. Fox, Gaussian, Inc., Wallingford CT, 2019.
 
 ******************************************
 Gaussian 16:  ES64L-G16RevC.01  3-Jul-2019
                 7-Jan-2022 
 ******************************************
 %chk=NCCONCCOCCCNCCOCCCNCCOCCNCCNNCCONCCOCCCNCCOCOCNCCOCOCNCCOCCCNCCOCO_8.chk
 %nproc=56
 Will use up to   56 processors via shared memory.
 %mem=3gb
 ----------------------------------------------------------------------
 #p int=acc2e=12 pm6 charge nosymm int=acc2e=12 scf=(noincfock,novaracc
 ,fermi,maxcycle=128,ndamp=64,xqc)
 ----------------------------------------------------------------------
 1/18=10,28=-2,38=1,125=101,172=1/1;
 2/12=2,15=1,17=6,18=5,40=1/2;
 3/5=2,25=1,27=12,41=3900000/1,2,3;
 4/35=1/1;
 5/5=100002,7=128,8=3,13=1,18=-1,22=13,35=1,38=1,87=12,93=64/2,8;
 6/7=2,8=2,9=2,10=2,28=1,87=12/1;
 99/5=1,9=1/99;
 Leave Link    1 at Fri Jan  7 12:01:58 2022, MaxMem=   402653184 cpu:               2.4 elap:               0.0
 (Enter /work/01114/jfonner/frontera/gaussian/16rC.01/g16/l101.exe)
 --------------
 Atom number=23
 --------------
 Symbolic Z-matrix:
 Charge =  6 Multiplicity = 1
 c                     3.424     0.96499   17.63099 
 o                     3.136     2.11      17.61199 
 n                     3.173     0.129     18.647 
 c                     2.559     0.51601   19.90301 
 c                     3.34999  -0.12201   21.01401 
 o                     3.366    -1.33901   21.14 
 n                     4.067     0.68799   21.76799 
 c                     4.888     0.205     22.851 
 c                     4.35001   0.76901   24.17399 
 o                     4.16101   1.98101   24.26899 
 n                     4.06501  -0.11998   25.15099 
 c                     3.72001   0.31301   26.51501 
 c                     1.13798  -0.021     19.98301 
 o                     0.393     0.39401   18.824 
 c                     0.486     0.501     21.167 
 c                     6.36201   0.61399   22.652 
 c                     7.15199   0.29701   23.87399 
 c                     6.953    -0.121     21.455 
 c                     4.94099   0.13999   27.42002 
 o                     5.714    -0.80899   27.287 
 o                     5.24999   0.95501   28.29401 
 c                     2.499    -0.422     27.06199 
 h                     3.94674   0.55968   16.78994 
 
 ITRead=  0  0  0  0  0  0  0  0  0  0  0  0  0  0  0  0  0  0  0  0
 ITRead=  0  0  0
 MicOpt= -1 -1 -1 -1 -1 -1 -1 -1 -1 -1 -1 -1 -1 -1 -1 -1 -1 -1 -1 -1
 MicOpt= -1 -1 -1
 NAtoms=     23 NQM=       23 NQMF=       0 NMMI=      0 NMMIF=      0
                NMic=       0 NMicF=      0.
                    Isotopes and Nuclear Properties:
 (Nuclear quadrupole moments (NQMom) in fm**2, nuclear magnetic moments (NMagM)
  in nuclear magnetons)

  Atom         1           2           3           4           5           6           7           8           9          10
 IAtWgt=          12          16          14          12          12          16          14          12          12          16
 AtmWgt=  12.0000000  15.9949146  14.0030740  12.0000000  12.0000000  15.9949146  14.0030740  12.0000000  12.0000000  15.9949146
 NucSpn=           0           0           2           0           0           0           2           0           0           0
 AtZEff=  -0.0000000  -0.0000000  -0.0000000  -0.0000000  -0.0000000  -0.0000000  -0.0000000  -0.0000000  -0.0000000  -0.0000000
 NQMom=    0.0000000   0.0000000   2.0440000   0.0000000   0.0000000   0.0000000   2.0440000   0.0000000   0.0000000   0.0000000
 NMagM=    0.0000000   0.0000000   0.4037610   0.0000000   0.0000000   0.0000000   0.4037610   0.0000000   0.0000000   0.0000000
 AtZNuc=   6.0000000   8.0000000   7.0000000   6.0000000   6.0000000   8.0000000   7.0000000   6.0000000   6.0000000   8.0000000

  Atom        11          12          13          14          15          16          17          18          19          20
 IAtWgt=          14          12          12          16          12          12          12          12          12          16
 AtmWgt=  14.0030740  12.0000000  12.0000000  15.9949146  12.0000000  12.0000000  12.0000000  12.0000000  12.0000000  15.9949146
 NucSpn=           2           0           0           0           0           0           0           0           0           0
 AtZEff=  -0.0000000  -0.0000000  -0.0000000  -0.0000000  -0.0000000  -0.0000000  -0.0000000  -0.0000000  -0.0000000  -0.0000000
 NQMom=    2.0440000   0.0000000   0.0000000   0.0000000   0.0000000   0.0000000   0.0000000   0.0000000   0.0000000   0.0000000
 NMagM=    0.4037610   0.0000000   0.0000000   0.0000000   0.0000000   0.0000000   0.0000000   0.0000000   0.0000000   0.0000000
 AtZNuc=   7.0000000   6.0000000   6.0000000   8.0000000   6.0000000   6.0000000   6.0000000   6.0000000   6.0000000   8.0000000

  Atom        21          22          23
 IAtWgt=          16          12           1
 AtmWgt=  15.9949146  12.0000000   1.0078250
 NucSpn=           0           0           1
 AtZEff=  -0.0000000  -0.0000000  -0.0000000
 NQMom=    0.0000000   0.0000000   0.0000000
 NMagM=    0.0000000   0.0000000   2.7928460
 AtZNuc=   8.0000000   6.0000000   1.0000000
 Background charge distribution read from input stream:
 Point Charges:
 XYZ=   -6.8150   -0.6680    1.6070 Q=    0.1840 A=    0.0000 R=    0.0000 C=    0.0000
 XYZ=   -5.7140    0.0020    2.3730 Q=    0.1690 A=    0.0000 R=    0.0000 C=    0.0000
 XYZ=   -4.3570   -0.6730    2.5880 Q=    0.1957 A=    0.0000 R=    0.0000 C=    0.0000
 XYZ=   -4.2120   -1.8700    2.4920 Q=   -0.4612 A=    0.0000 R=    0.0000 C=    0.0000
 XYZ=   -3.3810    0.1250    2.9530 Q=   -0.3003 A=    0.0000 R=    0.0000 C=    0.0000
 XYZ=   -2.0620   -0.3900    3.2740 Q=    0.2639 A=    0.0000 R=    0.0000 C=    0.0000
 XYZ=   -1.6360    0.1750    4.6000 Q=    0.1489 A=    0.0000 R=    0.0000 C=    0.0000
 XYZ=   -1.7440    1.3560    4.8620 Q=   -0.3095 A=    0.0000 R=    0.0000 C=    0.0000
 XYZ=   -0.9930   -0.0450    2.1970 Q=   -1.2213 A=    0.0000 R=    0.0000 C=    0.0000
 XYZ=    0.3900   -0.4880    2.6400 Q=    0.9359 A=    0.0000 R=    0.0000 C=    0.0000
 XYZ=   -1.3780   -0.6620    0.8970 Q=    0.8742 A=    0.0000 R=    0.0000 C=    0.0000
 XYZ=   -1.0950   -0.7000    5.4150 Q=   -0.4278 A=    0.0000 R=    0.0000 C=    0.0000
 XYZ=   -0.5720   -0.3110    6.6690 Q=    0.2444 A=    0.0000 R=    0.0000 C=    0.0000
 XYZ=    0.8400   -0.8540    6.7920 Q=    0.2936 A=    0.0000 R=    0.0000 C=    0.0000
 XYZ=    1.0270   -2.0220    6.7200 Q=   -0.4614 A=    0.0000 R=    0.0000 C=    0.0000
 XYZ=   -1.4110   -0.9130    7.7970 Q=   -1.2094 A=    0.0000 R=    0.0000 C=    0.0000
 XYZ=   -0.7270   -0.6450    9.1230 Q=    0.9838 A=    0.0000 R=    0.0000 C=    0.0000
 XYZ=   -2.8000   -0.3490    7.7890 Q=    0.9737 A=    0.0000 R=    0.0000 C=    0.0000
 XYZ=    1.8100    0.0020    7.0230 Q=   -0.6094 A=    0.0000 R=    0.0000 C=    0.0000
 XYZ=    3.1910   -0.4290    7.1010 Q=   -0.0383 A=    0.0000 R=    0.0000 C=    0.0000
 XYZ=    3.9110    0.2580    8.2290 Q=    0.2652 A=    0.0000 R=    0.0000 C=    0.0000
 XYZ=    4.0640    1.4780    8.2280 Q=   -0.5489 A=    0.0000 R=    0.0000 C=    0.0000
 XYZ=    3.8710   -0.1030    5.7480 Q=    0.4467 A=    0.0000 R=    0.0000 C=    0.0000
 XYZ=    5.2470   -0.6430    5.5810 Q=   -0.4177 A=    0.0000 R=    0.0000 C=    0.0000
 XYZ=    5.8610   -0.6890    4.3530 Q=   -0.2968 A=    0.0000 R=    0.0000 C=    0.0000
 XYZ=    6.1080   -1.1970    6.4480 Q=    0.2630 A=    0.0000 R=    0.0000 C=    0.0000
 XYZ=    7.0590   -1.2270    4.4820 Q=    0.6103 A=    0.0000 R=    0.0000 C=    0.0000
 XYZ=    7.2390   -1.5230    5.7510 Q=   -0.3347 A=    0.0000 R=    0.0000 C=    0.0000
 XYZ=    4.3640   -0.5270    9.1890 Q=   -0.5070 A=    0.0000 R=    0.0000 C=    0.0000
 XYZ=    5.0670    0.0200   10.3260 Q=    0.3996 A=    0.0000 R=    0.0000 C=    0.0000
 XYZ=    4.2710    0.8170   11.2960 Q=    0.1621 A=    0.0000 R=    0.0000 C=    0.0000
 XYZ=    4.3590    2.0330   11.3670 Q=   -0.2980 A=    0.0000 R=    0.0000 C=    0.0000
 XYZ=    3.4920    0.1040   12.0730 Q=   -0.4667 A=    0.0000 R=    0.0000 C=    0.0000
 XYZ=    2.5850    0.6770   13.0850 Q=    0.2746 A=    0.0000 R=    0.0000 C=    0.0000
 XYZ=    3.0060    0.0470   14.3610 Q=    0.2391 A=    0.0000 R=    0.0000 C=    0.0000
 XYZ=    2.9580   -1.1690   14.5150 Q=   -0.4626 A=    0.0000 R=    0.0000 C=    0.0000
 XYZ=    1.1270    0.3300   12.8270 Q=   -1.2217 A=    0.0000 R=    0.0000 C=    0.0000
 XYZ=    0.2480    0.6750   14.0380 Q=    0.9822 A=    0.0000 R=    0.0000 C=    0.0000
 XYZ=    0.6740    1.0470   11.5960 Q=    0.9278 A=    0.0000 R=    0.0000 C=    0.0000
 XYZ=    3.4810    0.8870   15.2620 Q=   -0.6284 A=    0.0000 R=    0.0000 C=    0.0000
 XYZ=    4.1630    0.3920   16.4420 Q=    0.1821 A=    0.0000 R=    0.0000 C=    0.0000
 XYZ=    5.6880    0.7500   16.3890 Q=   -0.3175 A=    0.0000 R=    0.0000 C=    0.0000
 XYZ=    6.2640    0.1300   15.2360 Q=   -0.3082 A=    0.0000 R=    0.0000 C=    0.0000
 XYZ=    6.4200    0.2100   17.5690 Q=    0.9463 A=    0.0000 R=    0.0000 C=    0.0000
 Pt Chg Charge=              0.1193 electrons
 Pt Chg Dipole moment (Debye):
    X=            -22.6370    Y=              2.0743    Z=              6.1550  Tot=             23.5503
 Pt Chg Quadrupole moment (Debye-Ang):
   XX=             76.5131   YY=            -27.5519   ZZ=            389.3375
   XY=            -23.5934   XZ=           -143.1044   YZ=             53.8538
 Pt Chg Traceless Quadrupole moment (Debye-Ang):
   XX=            -69.5864   YY=           -173.6515   ZZ=            243.2379
   XY=            -23.5934   XZ=           -143.1044   YZ=             53.8538
 Pt Chg Octapole moment (Debye-Ang**2):
  XXX=            124.1452  YYY=             16.5120  ZZZ=           9497.7900  XYY=            -31.7590
  XXY=           -103.2560  XXZ=            893.7473  XZZ=             79.3684  YZZ=            697.0277
  YYZ=           -214.4177  XYZ=           -167.4254
 Pt Chg Hexadecapole moment (Debye-Ang**3):
 XXXX=           7370.3827 YYYY=           -107.4623 ZZZZ=         197675.1897 XXXY=           -667.2042
 XXXZ=           7506.4812 YYYX=           -121.0495 YYYZ=             50.0335 ZZZX=          32920.1162
 ZZZY=           9180.6987 XXYY=           -361.0501 XXZZ=          20885.3932 YYZZ=          -1973.3173
 XXYZ=           -835.1458 YYXZ=           -652.5304 ZZXY=          -1417.2531
 Leave Link  101 at Fri Jan  7 12:01:58 2022, MaxMem=   402653184 cpu:               6.0 elap:               0.1
 (Enter /work/01114/jfonner/frontera/gaussian/16rC.01/g16/l202.exe)
                          Input orientation:                          
 ---------------------------------------------------------------------
 Center     Atomic      Atomic             Coordinates (Angstroms)
 Number     Number       Type             X           Y           Z
 ---------------------------------------------------------------------
      1          6           0        3.424000    0.964988   17.630990
      2          8           0        3.136003    2.109999   17.611994
      3          7           0        3.173005    0.128997   18.646999
      4          6           0        2.559005    0.516008   19.903015
      5          6           0        3.349988   -0.122005   21.014006
      6          8           0        3.366002   -1.339011   21.139999
      7          7           0        4.066999    0.687993   21.767989
      8          6           0        4.888004    0.204996   22.850999
      9          6           0        4.350006    0.769010   24.173991
     10          8           0        4.161012    1.981015   24.268993
     11          7           0        4.065009   -0.119983   25.150991
     12          6           0        3.720007    0.313006   26.515009
     13          6           0        1.137983   -0.021002   19.983013
     14          8           0        0.392999    0.394012   18.823998
     15          6           0        0.485998    0.501003   21.167001
     16          6           0        6.362012    0.613992   22.652002
     17          6           0        7.151992    0.297011   23.873992
     18          6           0        6.953002   -0.120999   21.454999
     19          6           0        4.940987    0.139992   27.420016
     20          8           0        5.714001   -0.808993   27.287002
     21          8           0        5.249992    0.955010   28.294006
     22          6           0        2.499002   -0.422002   27.061994
     23          1           0        3.946741    0.559675   16.789941
 ---------------------------------------------------------------------
                    Distance matrix (angstroms):
                    1          2          3          4          5
     1  C    0.000000
     2  O    1.180828   0.000000
     3  N    1.339460   2.235392   0.000000
     4  C    2.472224   2.850002   1.450637   0.000000
     5  C    3.554128   4.074472   2.386848   1.505662   0.000000
     6  O    4.198203   4.939169   2.899541   2.371175   1.223615
     7  N    4.195823   4.490117   3.294279   2.404528   1.318595
     8  C    5.474430   5.843433   4.540992   3.769824   2.418050
     9  C    6.611108   6.806751   5.687054   4.638204   3.432120
    10  O    6.755632   6.736684   6.001078   4.875903   3.959216
    11  N    7.624858   7.916587   6.569594   5.496707   4.198321
    12  C    8.912827   9.101314   7.889147   6.716220   5.530568
    13  C    3.424917   3.762311   2.439005   1.521211   2.442563
    14  O    3.307000   3.455089   2.798213   2.422961   3.715668
    15  C    4.620661   4.716935   3.702540   2.428012   2.934959
    16  C    5.828007   6.168213   5.142473   4.693548   3.506709
    17  C    7.301999   7.656873   6.571302   6.075537   4.776016
    18  C    5.315662   5.857945   4.715479   4.703366   3.629902
    19  C    9.940165  10.165441   8.949396   7.894335   6.605821
    20  O   10.081154  10.429399   9.054619   8.138360   6.738768
    21  O   10.818237  10.950266   9.902571   8.822861   7.600551
    22  C    9.577222   9.804045   8.459906   7.220419   6.114927
    23  H    1.070000   1.933021   2.057381   3.408657   4.320130
                    6          7          8          9         10
     6  O    0.000000
     7  N    2.234841   0.000000
     8  C    2.761878   1.442305   0.000000
     9  C    3.823235   2.423943   1.535533   0.000000
    10  O    4.630898   2.817049   2.386099   1.230325   0.000000
    11  N    4.250023   3.478151   2.464325   1.351319   2.280642
    12  C    5.634289   4.774434   3.847188   2.466821   2.832195
    13  C    2.835459   3.502563   4.726423   5.339055   5.613946
    14  O    4.148008   4.717179   6.038007   6.664904   6.809145
    15  C    3.417718   3.635893   4.722407   4.903506   5.031750
    16  C    3.882840   2.460495   1.542587   2.527577   3.054146
    17  C    4.948233   3.755702   2.486086   2.857256   3.455120
    18  C    3.801230   3.013543   2.513823   3.867897   4.486896
    19  C    6.641283   5.745395   4.569787   3.358809   3.731846
    20  O    6.601490   5.950890   4.624778   3.747188   4.393666
    21  O    7.745435   6.637746   5.506350   4.221267   4.294100
    22  C    6.054967   5.631802   4.881899   3.631155   4.041982
    23  H    4.781764   4.981153   6.143956   7.398016   7.615926
                   11         12         13         14         15
    11  N    0.000000
    12  C    1.472091   0.000000
    13  C    5.940141   7.031741   0.000000
    14  O    7.333395   8.380166   1.438941   0.000000
    15  C    5.391393   6.252627   1.448931   2.347287   0.000000
    16  C    3.472735   4.689734   5.900610   7.094443   6.061809
    17  C    3.366612   4.330560   7.170018   8.437762   7.197561
    18  C    4.690508   6.020325   5.999266   7.086681   6.503228
    19  C    2.446098   1.529629   8.354506   9.728321   7.686185
    20  O    2.785041   2.414719   8.655006  10.068898   8.154907
    21  O    3.526803   2.432664   9.323831  10.657680   8.584635
    22  C    2.489081   1.526526   7.219775   8.541996   6.297227
    23  H    8.389462   9.730838   4.292087   4.098038   5.580218
                   16         17         18         19         20
    16  C    0.000000
    17  C    1.489229   0.000000
    18  C    1.523909   2.462896   0.000000
    19  C    4.997793   4.181804   6.300614   0.000000
    20  O    4.891628   3.865191   6.001726   1.231184   0.000000
    21  O    5.760650   4.856654   7.129520   1.234341   2.083522
    22  C    5.953499   5.686005   7.167085   2.531266   3.246014
    23  H    6.340366   7.779872   5.591395  10.684715  10.732416
                   21         22         23
    21  O    0.000000
    22  C    3.313904   0.000000
    23  H   11.584397  10.419919   0.000000
 Symmetry turned off by external request.
 Stoichiometry    C13HN3O6(6+)
 Framework group  C1[X(C13HN3O6)]
 Deg. of freedom    63
 Full point group                 C1      NOp   1
 Rotational constants (GHZ):           0.5984574           0.1376927           0.1218063
 Leave Link  202 at Fri Jan  7 12:01:58 2022, MaxMem=   402653184 cpu:               1.2 elap:               0.0
 (Enter /work/01114/jfonner/frontera/gaussian/16rC.01/g16/l301.exe)
 Standard basis: VSTO-6G (5D, 7F)
 Ernie: Thresh=  0.10000D-02 Tol=  0.10000D-05 Strict=F.
  NNHCO=     0 NNPyr=     0 NCTC=     0               EPep=         0.000000000
    EC=       660.885370361  ECS=         5.643371119   EG=         0.586341293
   EHC=         0.002203597  EAt=      -138.048288797  AtH=         4.733037702
 EPDDG=         0.000000000  ECC=       667.117286370 EAtT=       142.781326498
    89 basis functions,   534 primitive gaussians,    89 cartesian basis functions
    49 alpha electrons       49 beta electrons
       nuclear repulsion energy       809.8986128683 Hartrees.
 IExCor=    0 DFT=F Ex=HF Corr=None ExCW=0 ScaHFX=  1.000000
 ScaDFX=  1.000000  1.000000  1.000000  1.000000 ScalE2=  1.000000  1.000000
 IRadAn=      5 IRanWt=     -1 IRanGd=            0 ICorTp=0 IEmpDi=  4
 Integral buffers will be    131072 words long.
 Regular integral format.
 Two-electron integral symmetry is turned off.
 Background charge distribution read from rwf.
 PtFMM for NChg=        67 BoxLen=    40.00 Levels= 1 LMax=20 SMax=    51.8 ICnFMM=     1:
 Self energy of the charges =        -2.8808905235 a.u.
 MM   energy of the charges =         0.0000000000 a.u.
 Nuclei-charges interaction =         1.3962615178 a.u.
 Nuclear repulsion after external point charges =      808.4139838626 Hartrees.
 Leave Link  301 at Fri Jan  7 12:01:58 2022, MaxMem=   402653184 cpu:               5.0 elap:               0.1
 (Enter /work/01114/jfonner/frontera/gaussian/16rC.01/g16/l302.exe)
 Do NDO integrals.
 NPDir=0 NMtPBC=     1 NCelOv=     1 NCel=       1 NClECP=     1 NCelD=      1
         NCelK=      1 NCelE2=     1 NClLst=     1 CellRange=     0.0.
 One-electron integrals computed using PRISM.
 NBasis=    89 RedAO= F EigKep=  0.00D+00  NBF=    89
 NBsUse=    89 1.00D-04 EigRej=  0.00D+00 NBFU=    89
 Leave Link  302 at Fri Jan  7 12:01:58 2022, MaxMem=   402653184 cpu:               7.0 elap:               0.1
 (Enter /work/01114/jfonner/frontera/gaussian/16rC.01/g16/l303.exe)
 DipDrv:  MaxL=1.
 Leave Link  303 at Fri Jan  7 12:01:58 2022, MaxMem=   402653184 cpu:               1.1 elap:               0.0
 (Enter /work/01114/jfonner/frontera/gaussian/16rC.01/g16/l401.exe)
 Simple Huckel Guess.
 JPrj=0 DoOrth=F DoCkMO=F.
 Leave Link  401 at Fri Jan  7 12:01:58 2022, MaxMem=   402653184 cpu:               2.0 elap:               0.1
 (Enter /work/01114/jfonner/frontera/gaussian/16rC.01/g16/l502.exe)
 Keep J ints in memory in canonical form, NReq=884745.
 FoFCou: FMM=F IPFlag=           0 FMFlag=           0 FMFlg1=           0
         NFxFlg=           0 DoJE=F BraDBF=F KetDBF=F FulRan=T
         wScrn=  0.000000 ICntrl=       600 IOpCl=  2 I1Cent=           0 NGrid=           0
         NMat0=    1 NMatS0=    221 NMatT0=    0 NMatD0=    1 NMtDS0=    0 NMtDT0=    0
 Symmetry not used in FoFCou.
 Two-electron integral symmetry not used.
 Closed shell SCF:
 Using DIIS extrapolation, IDIIS=    10.
 Overlap will be assumed to be unity.
 NGot=   402653184 LenX=   402547144 LenY=   402538782
 Requested convergence on RMS density matrix=1.00D-08 within 128 cycles.
 Requested convergence on MAX density matrix=1.00D-06.
 Requested convergence on             energy=1.00D-06.
 Level shift goal  0.100 maximum shift  0.100.
 No special actions if energy rises.
 Dynamic level shift is on during FON iterations.

 Cycle   1  Pass 1  IDiag  1:
 E=  4.71169767222921    
 DIIS: error= 4.27D-02 at cycle   1 NSaved=   1.
 NSaved= 1 IEnMin= 1 EnMin=  4.71169767222921     IErMin= 1 ErrMin= 4.27D-02
 ErrMax= 4.27D-02  0.00D+00 EMaxC= 1.00D+00 BMatC= 4.65D-01 BMatP= 4.65D-01
 IDIUse=1 WtCom= 1.00D+00 WtEn= 0.00D+00
 Coeff-Com:  0.100D+01
 Coeff:      0.100D+01
 Gap=     0.173 Goal=     0.100 Shift=    0.000
 T= 1708. Gap= 0.013 NK=0 IS=    1 IE=   89 IFin=   57
          NO(<0.9)=   1  NV(>0.1)=   1     48.69e < EF      0.31e >EF  Err=0.0D+00
 GapD=    0.173 DampG=1.000 DampE=0.500 DampFc=0.5000 IDamp=-1.
 Damping current iteration by 5.00D-01
 RMSDP=3.98D-02 MaxDP=8.15D-01              OVMax= 0.00D+00

 Cycle   2  Pass 1  IDiag  1:
 E=  5.91663423098862     Delta-E=        1.204936558759 Rises=F Damp=T
 DIIS: error= 4.47D-02 at cycle   2 NSaved=   2.
 NSaved= 2 IEnMin= 1 EnMin=  4.71169767222921     IErMin= 1 ErrMin= 4.27D-02
 ErrMax= 4.47D-02  0.00D+00 EMaxC= 1.00D+00 BMatC= 3.12D-01 BMatP= 4.65D-01
 IDIUse=1 WtCom= 1.00D+00 WtEn= 0.00D+00
 Coeff-Com:  0.386D+00 0.614D+00
 Coeff:      0.386D+00 0.614D+00
 T= 1708. Gap= 0.013 NK=0 IS=   45 IE=   89 IFin=   53
          NO(<0.9)=   1  NV(>0.1)=   2     48.70e < EF      0.30e >EF  Err=7.1D-15
 RMSDP=2.45D-02 MaxDP=4.51D-01 DE= 1.20D+00 OVMax= 0.00D+00

 Cycle   3  Pass 1  IDiag  1:
 E=  5.10973754123859     Delta-E=       -0.806896689750 Rises=F Damp=F
 DIIS: error= 4.54D-02 at cycle   3 NSaved=   3.
 NSaved= 3 IEnMin= 1 EnMin=  4.71169767222921     IErMin= 1 ErrMin= 4.27D-02
 ErrMax= 4.54D-02  0.00D+00 EMaxC= 1.00D+00 BMatC= 3.68D-01 BMatP= 3.12D-01
 IDIUse=1 WtCom= 1.00D+00 WtEn= 0.00D+00
 Coeff-Com:  0.841D-01 0.502D+00 0.414D+00
 Coeff:      0.841D-01 0.502D+00 0.414D+00
 T= 1708. Gap= 0.014 NK=0 IS=    1 IE=   89 IFin=   51
          NO(<0.9)=   1  NV(>0.1)=   1     48.76e < EF      0.24e >EF  Err=0.0D+00
 RMSDP=2.47D-02 MaxDP=5.20D-01 DE=-8.07D-01 OVMax= 0.00D+00

 Cycle   4  Pass 1  IDiag  1:
 E=  3.24271891502974     Delta-E=       -1.867018626209 Rises=F Damp=F
 DIIS: error= 3.06D-02 at cycle   4 NSaved=   4.
 NSaved= 4 IEnMin= 4 EnMin=  3.24271891502974     IErMin= 4 ErrMin= 3.06D-02
 ErrMax= 3.06D-02  0.00D+00 EMaxC= 1.00D+00 BMatC= 1.57D-01 BMatP= 3.12D-01
 IDIUse=1 WtCom= 1.00D+00 WtEn= 0.00D+00
 Coeff-Com: -0.190D+00 0.272D+00 0.339D+00 0.579D+00
 Coeff:     -0.190D+00 0.272D+00 0.339D+00 0.579D+00
 Gap=    -0.045 Goal=     0.100 Shift=    0.100
 T= 1672. Gap= 0.027 NK=0 IS=   47 IE=   89 IFin=   51
          NO(<0.9)=   0  NV(>0.1)=   0     48.93e < EF      0.07e >EF  Err=0.0D+00
 GapD=   -0.045 DampG=0.250 DampE=0.500 DampFc=0.1250 IDamp=-1.
 Damping current iteration by 1.25D-01
 RMSDP=1.23D-02 MaxDP=2.50D-01 DE=-1.87D+00 OVMax= 0.00D+00

 Cycle   5  Pass 1  IDiag  1:
 E=  3.11239338836424     Delta-E=       -0.130325526666 Rises=F Damp=T
 DIIS: error= 2.92D-02 at cycle   5 NSaved=   5.
 NSaved= 5 IEnMin= 5 EnMin=  3.11239338836424     IErMin= 5 ErrMin= 2.92D-02
 ErrMax= 2.92D-02  0.00D+00 EMaxC= 1.00D+00 BMatC= 1.31D-01 BMatP= 1.57D-01
 IDIUse=1 WtCom= 1.00D+00 WtEn= 0.00D+00
 Coeff-Com: -0.154D+00 0.145D+00 0.201D+00-0.421D+01 0.502D+01
 Coeff:     -0.154D+00 0.145D+00 0.201D+00-0.421D+01 0.502D+01
 Gap=     0.061 Goal=     0.100 Shift=    0.039
 T= 1590. Gap= 0.096 NK=0 IS=    1 IE=   89 IFin=   52
          NO(<0.9)=   0  NV(>0.1)=   0     49.00e < EF      0.00e >EF  Err=7.1D-15
 GapD=    0.061 DampG=0.500 DampE=0.500 DampFc=0.2500 IDamp=-1.
 Damping current iteration by 2.50D-01
 RMSDP=1.49D-02 MaxDP=2.73D-01 DE=-1.30D-01 OVMax= 0.00D+00

 Cycle   6  Pass 1  IDiag  1:
 E=  2.84206803395170     Delta-E=       -0.270325354413 Rises=F Damp=T
 DIIS: error= 2.38D-02 at cycle   6 NSaved=   6.
 NSaved= 6 IEnMin= 6 EnMin=  2.84206803395170     IErMin= 6 ErrMin= 2.38D-02
 ErrMax= 2.38D-02  0.00D+00 EMaxC= 1.00D+00 BMatC= 7.67D-02 BMatP= 1.31D-01
 IDIUse=1 WtCom= 1.00D+00 WtEn= 0.00D+00
 Coeff-Com: -0.562D-01 0.590D-02 0.677D-01 0.522D+01-0.967D+01 0.543D+01
 Coeff:     -0.562D-01 0.590D-02 0.677D-01 0.522D+01-0.967D+01 0.543D+01
 Gap=     0.136 Goal=     0.100 Shift=    0.000
 T= 1452. Gap= 0.126 NK=3 IS=   39 IE=   55 IFin=   50
          NO(<0.9)=   0  NV(>0.1)=   0     49.00e < EF      0.00e >EF  Err=7.1D-15
 GapD=    0.136 DampG=1.000 DampE=0.500 DampFc=0.5000 IDamp=-1.
 Damping current iteration by 5.00D-01
 RMSDP=1.39D-02 MaxDP=2.26D-01 DE=-2.70D-01 OVMax= 0.00D+00

 Cycle   7  Pass 1  IDiag  1:
 E=  2.46831632944327     Delta-E=       -0.373751704508 Rises=F Damp=T
 DIIS: error= 1.09D-02 at cycle   7 NSaved=   7.
 NSaved= 7 IEnMin= 7 EnMin=  2.46831632944327     IErMin= 7 ErrMin= 1.09D-02
 ErrMax= 1.09D-02  0.00D+00 EMaxC= 1.00D+00 BMatC= 1.53D-02 BMatP= 7.67D-02
 IDIUse=1 WtCom= 1.00D+00 WtEn= 0.00D+00
 Coeff-Com: -0.204D-01-0.300D-01 0.144D-01-0.165D+01 0.372D+01-0.353D+01
 Coeff-Com:  0.249D+01
 Coeff:     -0.204D-01-0.300D-01 0.144D-01-0.165D+01 0.372D+01-0.353D+01
 Coeff:      0.249D+01
 Gap=     0.182 Goal=     0.100 Shift=    0.000
 T= 1291. Gap= 0.130 NK=3 IS=   50 IE=   57 IFin=   49
          NO(<0.9)=   0  NV(>0.1)=   0     49.00e < EF      0.00e >EF  Err=0.0D+00
 GapD=    0.182 DampG=1.000 DampE=0.500 DampFc=0.5000 IDamp=-1.
 Damping current iteration by 5.00D-01
 RMSDP=7.80D-03 MaxDP=1.14D-01 DE=-3.74D-01 OVMax= 0.00D+00

 Cycle   8  Pass 1  IDiag  1:
 E=  2.31710981010360     Delta-E=       -0.151206519340 Rises=F Damp=T
 DIIS: error= 4.17D-03 at cycle   8 NSaved=   8.
 NSaved= 8 IEnMin= 8 EnMin=  2.31710981010360     IErMin= 8 ErrMin= 4.17D-03
 ErrMax= 4.17D-03  0.00D+00 EMaxC= 1.00D+00 BMatC= 3.00D-03 BMatP= 1.53D-02
 IDIUse=1 WtCom= 1.00D+00 WtEn= 0.00D+00
 Coeff-Com:  0.145D-02-0.250D-01 0.827D-02 0.694D+00-0.136D+01 0.123D+01
 Coeff-Com: -0.189D+01 0.235D+01
 Coeff:      0.145D-02-0.250D-01 0.827D-02 0.694D+00-0.136D+01 0.123D+01
 Coeff:     -0.189D+01 0.235D+01
 Gap=     0.146 Goal=     0.100 Shift=    0.000
 T=  993. Gap= 0.146 NK=4 IS=   50 IE=   58 IFin=   49
          NO(<0.9)=   0  NV(>0.1)=   0     49.00e < EF      0.00e >EF  Err=0.0D+00
 GapD=    0.146 DampG=1.000 DampE=1.000 DampFc=1.0000 IDamp=-1.
 RMSDP=4.18D-03 MaxDP=5.33D-02 DE=-1.51D-01 OVMax= 0.00D+00

 Cycle   9  Pass 1  IDiag  3:
 E=  2.17079304649724     Delta-E=       -0.146316763606 Rises=F Damp=F
 DIIS: error= 2.31D-03 at cycle   9 NSaved=   9.
 NSaved= 9 IEnMin= 9 EnMin=  2.17079304649724     IErMin= 9 ErrMin= 2.31D-03
 ErrMax= 2.31D-03  0.00D+00 EMaxC= 1.00D+00 BMatC= 6.92D-04 BMatP= 3.00D-03
 IDIUse=1 WtCom= 1.00D+00 WtEn= 0.00D+00
 Coeff-Com: -0.137D-02-0.102D-01 0.100D-01 0.955D+00-0.158D+01 0.674D+00
 Coeff-Com:  0.797D+00-0.141D+01 0.156D+01
 Coeff:     -0.137D-02-0.102D-01 0.100D-01 0.955D+00-0.158D+01 0.674D+00
 Coeff:      0.797D+00-0.141D+01 0.156D+01
 Gap=     0.149 Goal=     0.100 Shift=    0.000
 T=  511. Gap= 0.149 NK=4 IS=   50 IE=   57 IFin=   49
          NO(<0.9)=   0  NV(>0.1)=   0     49.00e < EF      0.00e >EF  Err=0.0D+00
 GapD=    0.149 DampG=1.000 DampE=1.000 DampFc=1.0000 IDamp=-1.
 RMSDP=1.07D-03 MaxDP=1.43D-02 DE=-1.46D-01 OVMax= 2.65D-02

 Cycle  10  Pass 1  IDiag  3:
 E=  2.16654693400983     Delta-E=       -0.004246112487 Rises=F Damp=F
 DIIS: error= 1.04D-03 at cycle  10 NSaved=  10.
 NSaved=10 IEnMin=10 EnMin=  2.16654693400983     IErMin=10 ErrMin= 1.04D-03
 ErrMax= 1.04D-03  0.00D+00 EMaxC= 1.00D+00 BMatC= 1.53D-04 BMatP= 6.92D-04
 IDIUse=1 WtCom= 1.00D+00 WtEn= 0.00D+00
 Coeff-Com: -0.833D-03 0.217D-02 0.998D-03-0.343D+00 0.706D+00-0.583D+00
 Coeff-Com:  0.430D+00-0.280D+00-0.781D+00 0.185D+01
 Coeff:     -0.833D-03 0.217D-02 0.998D-03-0.343D+00 0.706D+00-0.583D+00
 Coeff:      0.430D+00-0.280D+00-0.781D+00 0.185D+01
 Gap=     0.159 Goal=     0.100 Shift=    0.000
 T=    7. Gap= 0.159 NK=4 IS=   50 IE=   57 IFin=   49
          NO(<0.9)=   0  NV(>0.1)=   0     49.00e < EF      0.00e >EF  Err=0.0D+00
 GapD=    0.159 DampG=1.000 DampE=1.000 DampFc=1.0000 IDamp=-1.
 RMSDP=1.30D-03 MaxDP=1.55D-02 DE=-4.25D-03 OVMax= 3.21D-02

 Cycle  11  Pass 1  IDiag  3:
 E=  2.16429716521873     Delta-E=       -0.002249768791 Rises=F Damp=F
 DIIS: error= 4.56D-04 at cycle  11 NSaved=  11.
 NSaved=11 IEnMin=11 EnMin=  2.16429716521873     IErMin=11 ErrMin= 4.56D-04
 ErrMax= 4.56D-04  0.00D+00 EMaxC= 1.00D+00 BMatC= 3.24D-05 BMatP= 1.53D-04
 IDIUse=1 WtCom= 1.00D+00 WtEn= 0.00D+00
 Coeff-Com: -0.705D-04 0.725D-03-0.102D-02-0.714D-01 0.119D+00-0.349D-01
 Coeff-Com: -0.159D+00 0.251D+00 0.180D+00-0.645D+00 0.136D+01
 Coeff:     -0.705D-04 0.725D-03-0.102D-02-0.714D-01 0.119D+00-0.349D-01
 Coeff:     -0.159D+00 0.251D+00 0.180D+00-0.645D+00 0.136D+01
 Gap=     0.162 Goal=     0.100 Shift=    0.000
 RMSDP=4.64D-04 MaxDP=5.03D-03 DE=-2.25D-03 OVMax= 1.26D-02

 Cycle  12  Pass 1  IDiag  3:
 E=  2.16378775752298     Delta-E=       -0.000509407696 Rises=F Damp=F
 DIIS: error= 3.83D-04 at cycle  12 NSaved=  12.
 NSaved=12 IEnMin=12 EnMin=  2.16378775752298     IErMin=12 ErrMin= 3.83D-04
 ErrMax= 3.83D-04  0.00D+00 EMaxC= 1.00D+00 BMatC= 1.63D-05 BMatP= 3.24D-05
 IDIUse=1 WtCom= 1.00D+00 WtEn= 0.00D+00
 Coeff-Com:  0.190D-03 0.634D-03-0.102D-02 0.888D-01-0.162D+00 0.109D+00
 Coeff-Com: -0.591D-01 0.185D-01 0.256D-01-0.159D+00-0.663D+00 0.180D+01
 Coeff:      0.190D-03 0.634D-03-0.102D-02 0.888D-01-0.162D+00 0.109D+00
 Coeff:     -0.591D-01 0.185D-01 0.256D-01-0.159D+00-0.663D+00 0.180D+01
 Gap=     0.162 Goal=     0.100 Shift=    0.000
 RMSDP=6.99D-04 MaxDP=7.01D-03 DE=-5.09D-04 OVMax= 2.01D-02

 Cycle  13  Pass 1  IDiag  3:
 E=  2.16324950068815     Delta-E=       -0.000538256835 Rises=F Damp=F
 DIIS: error= 2.30D-04 at cycle  13 NSaved=  13.
 NSaved=13 IEnMin=13 EnMin=  2.16324950068815     IErMin=13 ErrMin= 2.30D-04
 ErrMax= 2.30D-04  0.00D+00 EMaxC= 1.00D+00 BMatC= 8.93D-06 BMatP= 1.63D-05
 IDIUse=1 WtCom= 1.00D+00 WtEn= 0.00D+00
 Coeff-Com: -0.895D-03 0.161D-04-0.208D-03 0.197D-01-0.192D-01-0.206D-01
 Coeff-Com:  0.973D-01-0.114D+00-0.198D+00 0.562D+00-0.531D+00-0.669D+00
 Coeff-Com:  0.188D+01
 Coeff:     -0.895D-03 0.161D-04-0.208D-03 0.197D-01-0.192D-01-0.206D-01
 Coeff:      0.973D-01-0.114D+00-0.198D+00 0.562D+00-0.531D+00-0.669D+00
 Coeff:      0.188D+01
 Gap=     0.162 Goal=     0.100 Shift=    0.000
 RMSDP=6.42D-04 MaxDP=7.23D-03 DE=-5.38D-04 OVMax= 2.00D-02

 Cycle  14  Pass 1  IDiag  3:
 E=  2.16292317147690     Delta-E=       -0.000326329211 Rises=F Damp=F
 DIIS: error= 2.00D-04 at cycle  14 NSaved=  14.
 NSaved=14 IEnMin=14 EnMin=  2.16292317147690     IErMin=14 ErrMin= 2.00D-04
 ErrMax= 2.00D-04  0.00D+00 EMaxC= 1.00D+00 BMatC= 4.32D-06 BMatP= 8.93D-06
 IDIUse=1 WtCom= 1.00D+00 WtEn= 0.00D+00
 Coeff-Com:  0.438D-04-0.125D-03 0.166D-03-0.233D-01 0.481D-01-0.484D-01
 Coeff-Com:  0.849D-01-0.885D-01-0.379D-01 0.136D+00 0.916D-01-0.331D+00
 Coeff-Com: -0.334D+00 0.150D+01
 Coeff:      0.438D-04-0.125D-03 0.166D-03-0.233D-01 0.481D-01-0.484D-01
 Coeff:      0.849D-01-0.885D-01-0.379D-01 0.136D+00 0.916D-01-0.331D+00
 Coeff:     -0.334D+00 0.150D+01
 Gap=     0.162 Goal=     0.100 Shift=    0.000
 RMSDP=4.21D-04 MaxDP=5.51D-03 DE=-3.26D-04 OVMax= 1.36D-02

 Cycle  15  Pass 1  IDiag  3:
 E=  2.16278055069370     Delta-E=       -0.000142620783 Rises=F Damp=F
 DIIS: error= 1.89D-04 at cycle  15 NSaved=  15.
 NSaved=15 IEnMin=15 EnMin=  2.16278055069370     IErMin=15 ErrMin= 1.89D-04
 ErrMax= 1.89D-04  0.00D+00 EMaxC= 1.00D+00 BMatC= 2.43D-06 BMatP= 4.32D-06
 IDIUse=1 WtCom= 1.00D+00 WtEn= 0.00D+00
 Coeff-Com: -0.421D-04-0.197D-03 0.349D-03-0.104D-01 0.190D-01-0.166D-01
 Coeff-Com:  0.404D-01-0.532D-01 0.244D-02 0.846D-02-0.618D-01 0.223D+00
 Coeff-Com: -0.243D+00-0.386D+00 0.148D+01
 Coeff:     -0.421D-04-0.197D-03 0.349D-03-0.104D-01 0.190D-01-0.166D-01
 Coeff:      0.404D-01-0.532D-01 0.244D-02 0.846D-02-0.618D-01 0.223D+00
 Coeff:     -0.243D+00-0.386D+00 0.148D+01
 Gap=     0.162 Goal=     0.100 Shift=    0.000
 RMSDP=2.81D-04 MaxDP=4.08D-03 DE=-1.43D-04 OVMax= 9.40D-03

 Cycle  16  Pass 1  IDiag  3:
 E=  2.16270713066604     Delta-E=       -0.000073420028 Rises=F Damp=F
 DIIS: error= 1.81D-04 at cycle  16 NSaved=  16.
 NSaved=16 IEnMin=16 EnMin=  2.16270713066604     IErMin=16 ErrMin= 1.81D-04
 ErrMax= 1.81D-04  0.00D+00 EMaxC= 1.00D+00 BMatC= 1.52D-06 BMatP= 2.43D-06
 IDIUse=1 WtCom= 1.00D+00 WtEn= 0.00D+00
 Coeff-Com: -0.279D-04-0.123D-03 0.358D-03-0.448D-02 0.900D-02-0.108D-01
 Coeff-Com:  0.388D-01-0.549D-01-0.189D-02 0.578D-01-0.112D+00 0.910D-01
 Coeff-Com:  0.732D-01-0.169D+00-0.433D+00 0.152D+01
 Coeff:     -0.279D-04-0.123D-03 0.358D-03-0.448D-02 0.900D-02-0.108D-01
 Coeff:      0.388D-01-0.549D-01-0.189D-02 0.578D-01-0.112D+00 0.910D-01
 Coeff:      0.732D-01-0.169D+00-0.433D+00 0.152D+01
 Gap=     0.162 Goal=     0.100 Shift=    0.000
 RMSDP=2.11D-04 MaxDP=3.43D-03 DE=-7.34D-05 OVMax= 8.41D-03

 Cycle  17  Pass 1  IDiag  3:
 E=  2.16265780648860     Delta-E=       -0.000049324177 Rises=F Damp=F
 DIIS: error= 1.79D-04 at cycle  17 NSaved=  17.
 NSaved=17 IEnMin=17 EnMin=  2.16265780648860     IErMin=17 ErrMin= 1.79D-04
 ErrMax= 1.79D-04  0.00D+00 EMaxC= 1.00D+00 BMatC= 1.21D-06 BMatP= 1.52D-06
 IDIUse=1 WtCom= 1.00D+00 WtEn= 0.00D+00
 Coeff-Com: -0.453D-04-0.965D-04 0.288D-03-0.657D-02 0.137D-01-0.142D-01
 Coeff-Com:  0.367D-01-0.496D-01-0.355D-02 0.549D-01-0.808D-01 0.425D-01
 Coeff-Com:  0.488D-01 0.178D-02-0.260D+00-0.411D-01 0.126D+01
 Coeff:     -0.453D-04-0.965D-04 0.288D-03-0.657D-02 0.137D-01-0.142D-01
 Coeff:      0.367D-01-0.496D-01-0.355D-02 0.549D-01-0.808D-01 0.425D-01
 Coeff:      0.488D-01 0.178D-02-0.260D+00-0.411D-01 0.126D+01
 Gap=     0.162 Goal=     0.100 Shift=    0.000
 RMSDP=1.58D-04 MaxDP=2.82D-03 DE=-4.93D-05 OVMax= 7.00D-03

 Cycle  18  Pass 1  IDiag  3:
 E=  2.16262204858424     Delta-E=       -0.000035757904 Rises=F Damp=F
 DIIS: error= 1.79D-04 at cycle  18 NSaved=  18.
 NSaved=18 IEnMin=18 EnMin=  2.16262204858424     IErMin=18 ErrMin= 1.79D-04
 ErrMax= 1.79D-04  0.00D+00 EMaxC= 1.00D+00 BMatC= 1.09D-06 BMatP= 1.21D-06
 IDIUse=1 WtCom= 1.00D+00 WtEn= 0.00D+00
 Coeff-Com: -0.601D-04-0.663D-04 0.231D-03-0.104D-01 0.217D-01-0.205D-01
 Coeff-Com:  0.397D-01-0.494D-01-0.753D-02 0.598D-01-0.749D-01 0.292D-01
 Coeff-Com:  0.352D-01 0.138D-01-0.106D+00-0.721D-01 0.825D-01 0.106D+01
 Coeff:     -0.601D-04-0.663D-04 0.231D-03-0.104D-01 0.217D-01-0.205D-01
 Coeff:      0.397D-01-0.494D-01-0.753D-02 0.598D-01-0.749D-01 0.292D-01
 Coeff:      0.352D-01 0.138D-01-0.106D+00-0.721D-01 0.825D-01 0.106D+01
 Gap=     0.162 Goal=     0.100 Shift=    0.000
 RMSDP=1.17D-04 MaxDP=2.18D-03 DE=-3.58D-05 OVMax= 5.45D-03

 Cycle  19  Pass 1  IDiag  3:
 E=  2.16259555703550     Delta-E=       -0.000026491549 Rises=F Damp=F
 DIIS: error= 1.80D-04 at cycle  19 NSaved=  19.
 NSaved=19 IEnMin=19 EnMin=  2.16259555703550     IErMin=18 ErrMin= 1.79D-04
 ErrMax= 1.80D-04  0.00D+00 EMaxC= 1.00D+00 BMatC= 1.05D-06 BMatP= 1.09D-06
 IDIUse=1 WtCom= 1.00D+00 WtEn= 0.00D+00
 Coeff-Com: -0.624D-04-0.696D-04 0.195D-03-0.140D-01 0.286D-01-0.256D-01
 Coeff-Com:  0.424D-01-0.498D-01-0.875D-02 0.603D-01-0.653D-01 0.170D-01
 Coeff-Com:  0.275D-01 0.138D-01-0.608D-01 0.210D-01-0.118D+00 0.254D+00
 Coeff-Com:  0.878D+00
 Coeff:     -0.624D-04-0.696D-04 0.195D-03-0.140D-01 0.286D-01-0.256D-01
 Coeff:      0.424D-01-0.498D-01-0.875D-02 0.603D-01-0.653D-01 0.170D-01
 Coeff:      0.275D-01 0.138D-01-0.608D-01 0.210D-01-0.118D+00 0.254D+00
 Coeff:      0.878D+00
 Gap=     0.162 Goal=     0.100 Shift=    0.000
 RMSDP=8.77D-05 MaxDP=1.69D-03 DE=-2.65D-05 OVMax= 4.23D-03

 Cycle  20  Pass 1  IDiag  3:
 E=  2.16257538109573     Delta-E=       -0.000020175940 Rises=F Damp=F
 DIIS: error= 1.82D-04 at cycle  20 NSaved=  20.
 NSaved=20 IEnMin=20 EnMin=  2.16257538109573     IErMin=18 ErrMin= 1.79D-04
 ErrMax= 1.82D-04  0.00D+00 EMaxC= 1.00D+00 BMatC= 1.06D-06 BMatP= 1.05D-06
 IDIUse=1 WtCom= 1.00D+00 WtEn= 0.00D+00
 Coeff-Com: -0.599D-04-0.737D-04 0.189D-03-0.146D-01 0.298D-01-0.263D-01
 Coeff-Com:  0.426D-01-0.496D-01-0.857D-02 0.591D-01-0.629D-01 0.160D-01
 Coeff-Com:  0.255D-01 0.142D-01-0.612D-01 0.354D-01-0.749D-01 0.133D+00
 Coeff-Com:  0.550D+00 0.393D+00
 Coeff:     -0.599D-04-0.737D-04 0.189D-03-0.146D-01 0.298D-01-0.263D-01
 Coeff:      0.426D-01-0.496D-01-0.857D-02 0.591D-01-0.629D-01 0.160D-01
 Coeff:      0.255D-01 0.142D-01-0.612D-01 0.354D-01-0.749D-01 0.133D+00
 Coeff:      0.550D+00 0.393D+00
 Gap=     0.162 Goal=     0.100 Shift=    0.000
 RMSDP=3.32D-05 MaxDP=6.74D-04 DE=-2.02D-05 OVMax= 1.62D-03

 Cycle  21  Pass 1  IDiag  3:
 E=  2.16256764232639     Delta-E=       -0.000007738769 Rises=F Damp=F
 DIIS: error= 1.83D-04 at cycle  21 NSaved=  20.
 NSaved=20 IEnMin=20 EnMin=  2.16256764232639     IErMin=17 ErrMin= 1.79D-04
 ErrMax= 1.83D-04  0.00D+00 EMaxC= 1.00D+00 BMatC= 1.05D-06 BMatP= 1.05D-06
 IDIUse=1 WtCom= 1.00D+00 WtEn= 0.00D+00
 Coeff-Com: -0.750D-04 0.204D-03-0.162D-01 0.327D-01-0.285D-01 0.449D-01
 Coeff-Com: -0.522D-01-0.954D-02 0.611D-01-0.619D-01 0.170D-01 0.196D-01
 Coeff-Com:  0.244D-01-0.546D-01 0.285D-02-0.332D-01 0.202D+00 0.252D+00
 Coeff-Com: -0.203D+00 0.803D+00
 Coeff:     -0.750D-04 0.204D-03-0.162D-01 0.327D-01-0.285D-01 0.449D-01
 Coeff:     -0.522D-01-0.954D-02 0.611D-01-0.619D-01 0.170D-01 0.196D-01
 Coeff:      0.244D-01-0.546D-01 0.285D-02-0.332D-01 0.202D+00 0.252D+00
 Coeff:     -0.203D+00 0.803D+00
 Gap=     0.162 Goal=     0.100 Shift=    0.000
 RMSDP=3.23D-05 MaxDP=6.62D-04 DE=-7.74D-06 OVMax= 1.56D-03

 Cycle  22  Pass 1  IDiag  3:
 E=  2.16255999757686     Delta-E=       -0.000007644750 Rises=F Damp=F
 DIIS: error= 1.84D-04 at cycle  22 NSaved=  20.
 NSaved=20 IEnMin=20 EnMin=  2.16255999757686     IErMin=16 ErrMin= 1.79D-04
 ErrMax= 1.84D-04  0.00D+00 EMaxC= 1.00D+00 BMatC= 1.04D-06 BMatP= 1.05D-06
 IDIUse=1 WtCom= 1.00D+00 WtEn= 0.00D+00
 Coeff-Com:  0.424D-04-0.185D-01 0.365D-01-0.302D-01 0.424D-01-0.475D-01
 Coeff-Com: -0.130D-01 0.556D-01-0.551D-01 0.209D-01 0.220D-01 0.353D-01
 Coeff-Com: -0.558D-01-0.196D-01-0.101D+00 0.209D+00 0.144D+00 0.274D-01
 Coeff-Com:  0.209D+01-0.135D+01
 Coeff:      0.424D-04-0.185D-01 0.365D-01-0.302D-01 0.424D-01-0.475D-01
 Coeff:     -0.130D-01 0.556D-01-0.551D-01 0.209D-01 0.220D-01 0.353D-01
 Coeff:     -0.558D-01-0.196D-01-0.101D+00 0.209D+00 0.144D+00 0.274D-01
 Coeff:      0.209D+01-0.135D+01
 Gap=     0.162 Goal=     0.100 Shift=    0.000
 RMSDP=1.89D-05 MaxDP=3.67D-04 DE=-7.64D-06 OVMax= 9.46D-04

 Cycle  23  Pass 1  IDiag  3:
 E=  2.16256409262053     Delta-E=        0.000004095044 Rises=F Damp=F
 DIIS: error= 1.81D-04 at cycle  23 NSaved=  20.
 NSaved=20 IEnMin=19 EnMin=  2.16255999757686     IErMin=15 ErrMin= 1.79D-04
 ErrMax= 1.81D-04  0.00D+00 EMaxC= 1.00D+00 BMatC= 1.01D-06 BMatP= 1.04D-06
 IDIUse=1 WtCom= 1.00D+00 WtEn= 0.00D+00
 Coeff-Com: -0.168D-01 0.350D-01-0.334D-01 0.556D-01-0.622D-01-0.838D-02
 Coeff-Com:  0.814D-01-0.731D-01 0.143D-01-0.199D-01 0.150D-01-0.248D-01
 Coeff-Com:  0.418D-01 0.572D-01 0.356D+00 0.856D-01 0.588D-01 0.863D+00
 Coeff-Com: -0.397D+01 0.355D+01
 Coeff:     -0.168D-01 0.350D-01-0.334D-01 0.556D-01-0.622D-01-0.838D-02
 Coeff:      0.814D-01-0.731D-01 0.143D-01-0.199D-01 0.150D-01-0.248D-01
 Coeff:      0.418D-01 0.572D-01 0.356D+00 0.856D-01 0.588D-01 0.863D+00
 Coeff:     -0.397D+01 0.355D+01
 Gap=     0.162 Goal=   None    Shift=    0.000
 RMSDP=1.19D-04 MaxDP=2.39D-03 DE= 4.10D-06 OVMax= 5.91D-03

 Cycle  24  Pass 1  IDiag  3:
 E=  2.16259138611099     Delta-E=        0.000027293490 Rises=F Damp=F
 DIIS: error= 1.76D-04 at cycle  24 NSaved=  20.
 NSaved=20 IEnMin=18 EnMin=  2.16255999757686     IErMin=20 ErrMin= 1.76D-04
 ErrMax= 1.76D-04  0.00D+00 EMaxC= 1.00D+00 BMatC= 9.79D-07 BMatP= 1.01D-06
 IDIUse=1 WtCom= 1.00D+00 WtEn= 0.00D+00
 Coeff-Com:  0.296D-02-0.929D-02 0.365D-01-0.497D-01-0.256D-02 0.572D-01
 Coeff-Com: -0.773D-01 0.347D-01 0.108D-01-0.104D-01-0.225D-01-0.542D-03
 Coeff-Com: -0.107D-01 0.348D+00 0.328D+00 0.190D+00 0.158D+00-0.297D+01
 Coeff-Com:  0.170D+01 0.129D+01
 Coeff:      0.296D-02-0.929D-02 0.365D-01-0.497D-01-0.256D-02 0.572D-01
 Coeff:     -0.773D-01 0.347D-01 0.108D-01-0.104D-01-0.225D-01-0.542D-03
 Coeff:     -0.107D-01 0.348D+00 0.328D+00 0.190D+00 0.158D+00-0.297D+01
 Coeff:      0.170D+01 0.129D+01
 Gap=     0.162 Goal=   None    Shift=    0.000
 RMSDP=1.22D-04 MaxDP=2.48D-03 DE= 2.73D-05 OVMax= 6.10D-03

 Cycle  25  Pass 1  IDiag  3:
 E=  2.16261875600935     Delta-E=        0.000027369898 Rises=F Damp=F
 DIIS: error= 1.70D-04 at cycle  25 NSaved=  20.
 NSaved=20 IEnMin=17 EnMin=  2.16255999757686     IErMin=20 ErrMin= 1.70D-04
 ErrMax= 1.70D-04  0.00D+00 EMaxC= 1.00D+00 BMatC= 9.32D-07 BMatP= 9.79D-07
 IDIUse=1 WtCom= 1.00D+00 WtEn= 0.00D+00
 Coeff-Com: -0.189D-02 0.215D-01-0.341D-01-0.323D-02 0.391D-01-0.640D-01
 Coeff-Com:  0.455D-01 0.112D-01-0.156D-01-0.170D-01-0.398D-01 0.320D-01
 Coeff-Com:  0.221D+00 0.239D+00 0.283D+00 0.571D+00-0.189D+01 0.190D+00
 Coeff-Com: -0.212D+00 0.163D+01
 Coeff:     -0.189D-02 0.215D-01-0.341D-01-0.323D-02 0.391D-01-0.640D-01
 Coeff:      0.455D-01 0.112D-01-0.156D-01-0.170D-01-0.398D-01 0.320D-01
 Coeff:      0.221D+00 0.239D+00 0.283D+00 0.571D+00-0.189D+01 0.190D+00
 Coeff:     -0.212D+00 0.163D+01
 Gap=     0.162 Goal=   None    Shift=    0.000
 RMSDP=1.70D-04 MaxDP=3.42D-03 DE= 2.74D-05 OVMax= 8.44D-03

 Cycle  26  Pass 1  IDiag  3:
 E=  2.16265578387117     Delta-E=        0.000037027862 Rises=F Damp=F
 DIIS: error= 1.63D-04 at cycle  26 NSaved=  20.
 NSaved=20 IEnMin=16 EnMin=  2.16255999757686     IErMin=20 ErrMin= 1.63D-04
 ErrMax= 1.63D-04  0.00D+00 EMaxC= 1.00D+00 BMatC= 9.06D-07 BMatP= 9.32D-07
 IDIUse=1 WtCom= 1.00D+00 WtEn= 0.00D+00
 Coeff-Com:  0.122D-01-0.226D-01-0.452D-02 0.300D-01-0.621D-01 0.571D-01
 Coeff-Com:  0.182D-01-0.305D-01-0.181D-04-0.876D-01 0.215D-01 0.219D+00
 Coeff-Com:  0.200D+00 0.381D+00 0.811D+00-0.158D+01-0.784D-01-0.632D+00
 Coeff-Com:  0.921D+00 0.823D+00
 Coeff:      0.122D-01-0.226D-01-0.452D-02 0.300D-01-0.621D-01 0.571D-01
 Coeff:      0.182D-01-0.305D-01-0.181D-04-0.876D-01 0.215D-01 0.219D+00
 Coeff:      0.200D+00 0.381D+00 0.811D+00-0.158D+01-0.784D-01-0.632D+00
 Coeff:      0.921D+00 0.823D+00
 Gap=     0.162 Goal=   None    Shift=    0.000
 RMSDP=1.01D-04 MaxDP=2.04D-03 DE= 3.70D-05 OVMax= 5.00D-03

 Cycle  27  Pass 1  IDiag  3:
 E=  2.16267700126457     Delta-E=        0.000021217393 Rises=F Damp=F
 DIIS: error= 1.62D-04 at cycle  27 NSaved=  20.
 NSaved=20 IEnMin=15 EnMin=  2.16255999757686     IErMin=20 ErrMin= 1.62D-04
 ErrMax= 1.62D-04  0.00D+00 EMaxC= 1.00D+00 BMatC= 8.66D-07 BMatP= 9.06D-07
 IDIUse=1 WtCom= 1.00D+00 WtEn= 0.00D+00
 Coeff-Com:  0.192D-02-0.187D-01 0.230D-01-0.130D-01 0.209D-01-0.458D-02
 Coeff-Com: -0.959D-03 0.992D-03-0.673D-01-0.717D-01 0.176D+00 0.153D+00
 Coeff-Com:  0.377D+00 0.693D+00-0.980D+00-0.119D+01-0.559D-01-0.110D+01
 Coeff-Com:  0.359D+00 0.269D+01
 Coeff:      0.192D-02-0.187D-01 0.230D-01-0.130D-01 0.209D-01-0.458D-02
 Coeff:     -0.959D-03 0.992D-03-0.673D-01-0.717D-01 0.176D+00 0.153D+00
 Coeff:      0.377D+00 0.693D+00-0.980D+00-0.119D+01-0.559D-01-0.110D+01
 Coeff:      0.359D+00 0.269D+01
 Gap=     0.162 Goal=   None    Shift=    0.000
 RMSDP=7.17D-04 MaxDP=1.39D-02 DE= 2.12D-05 OVMax= 3.56D-02

 Cycle  28  Pass 1  IDiag  3:
 E=  2.16282927222846     Delta-E=        0.000152270964 Rises=F Damp=F
 DIIS: error= 1.58D-04 at cycle  28 NSaved=  20.
 NSaved=20 IEnMin=14 EnMin=  2.16255999757686     IErMin=20 ErrMin= 1.58D-04
 ErrMax= 1.58D-04  0.00D+00 EMaxC= 1.00D+00 BMatC= 1.54D-06 BMatP= 8.66D-07
 IDIUse=1 WtCom= 1.00D+00 WtEn= 0.00D+00
 Coeff-Com: -0.304D-01 0.515D-01-0.271D-01 0.329D-01-0.390D-01 0.980D-02
 Coeff-Com: -0.102D-01-0.490D-01-0.430D-01 0.126D+00 0.266D+00 0.138D+00
 Coeff-Com: -0.422D+00-0.229D+00-0.139D+01 0.147D+00-0.119D+01 0.102D+01
 Coeff-Com:  0.298D+01-0.343D+00
 Coeff:     -0.304D-01 0.515D-01-0.271D-01 0.329D-01-0.390D-01 0.980D-02
 Coeff:     -0.102D-01-0.490D-01-0.430D-01 0.126D+00 0.266D+00 0.138D+00
 Coeff:     -0.422D+00-0.229D+00-0.139D+01 0.147D+00-0.119D+01 0.102D+01
 Coeff:      0.298D+01-0.343D+00
 Gap=     0.162 Goal=   None    Shift=    0.000
 RMSDP=4.14D-05 MaxDP=5.63D-04 DE= 1.52D-04 OVMax= 1.38D-03

 Cycle  29  Pass 1  IDiag  3:
 E=  2.16282215326032     Delta-E=       -0.000007118968 Rises=F Damp=F
 DIIS: error= 1.60D-04 at cycle  29 NSaved=  20.
 NSaved=20 IEnMin=13 EnMin=  2.16255999757686     IErMin=19 ErrMin= 1.58D-04
 ErrMax= 1.60D-04  0.00D+00 EMaxC= 1.00D+00 BMatC= 1.20D-06 BMatP= 8.66D-07
 IDIUse=1 WtCom= 1.00D+00 WtEn= 0.00D+00
 Coeff-Com: -0.198D-01 0.279D-01 0.537D-01-0.675D-01-0.255D-01 0.467D-01
 Coeff-Com: -0.101D+00-0.221D-01 0.640D-01 0.306D+00-0.315D-02-0.678D+00
 Coeff-Com:  0.101D+01-0.293D+01 0.831D+00-0.112D+01 0.103D+01 0.275D+01
 Coeff-Com: -0.494D+00 0.345D+00
 Coeff:     -0.198D-01 0.279D-01 0.537D-01-0.675D-01-0.255D-01 0.467D-01
 Coeff:     -0.101D+00-0.221D-01 0.640D-01 0.306D+00-0.315D-02-0.678D+00
 Coeff:      0.101D+01-0.293D+01 0.831D+00-0.112D+01 0.103D+01 0.275D+01
 Coeff:     -0.494D+00 0.345D+00
 Gap=     0.162 Goal=   None    Shift=    0.000
 RMSDP=1.63D-04 MaxDP=3.07D-03 DE=-7.12D-06 OVMax= 8.08D-03

 Cycle  30  Pass 1  IDiag  3:
 E=  2.16285782434215     Delta-E=        0.000035671082 Rises=F Damp=F
 DIIS: error= 1.77D-04 at cycle  30 NSaved=  20.
 NSaved=20 IEnMin=12 EnMin=  2.16255999757686     IErMin=18 ErrMin= 1.58D-04
 ErrMax= 1.77D-04  0.00D+00 EMaxC= 1.00D+00 BMatC= 1.40D-06 BMatP= 8.66D-07
 IDIUse=1 WtCom= 1.00D+00 WtEn= 0.00D+00
 Coeff-Com:  0.316D-01 0.360D-02-0.468D-01-0.374D-02-0.580D-01 0.458D-02
 Coeff-Com:  0.830D-01 0.266D-01 0.365D+00-0.307D+00-0.251D+01 0.190D+01
 Coeff-Com: -0.211D+01 0.793D+00-0.646D+00 0.112D+01 0.186D+01 0.441D-01
 Coeff-Com:  0.383D+01-0.339D+01
 Coeff:      0.316D-01 0.360D-02-0.468D-01-0.374D-02-0.580D-01 0.458D-02
 Coeff:      0.830D-01 0.266D-01 0.365D+00-0.307D+00-0.251D+01 0.190D+01
 Coeff:     -0.211D+01 0.793D+00-0.646D+00 0.112D+01 0.186D+01 0.441D-01
 Coeff:      0.383D+01-0.339D+01
 Gap=     0.162 Goal=   None    Shift=    0.000
 RMSDP=9.75D-05 MaxDP=1.85D-03 DE= 3.57D-05 OVMax= 4.68D-03

 Cycle  31  Pass 1  IDiag  3:
 E=  2.16283811733649     Delta-E=       -0.000019707006 Rises=F Damp=F
 DIIS: error= 2.09D-04 at cycle  31 NSaved=  20.
 NSaved=20 IEnMin=11 EnMin=  2.16255999757686     IErMin=17 ErrMin= 1.58D-04
 ErrMax= 2.09D-04  0.00D+00 EMaxC= 1.00D+00 BMatC= 1.69D-06 BMatP= 8.66D-07
 IDIUse=1 WtCom= 1.00D+00 WtEn= 0.00D+00
 Coeff-Com:  0.548D-01-0.522D-01-0.357D-01-0.389D-01 0.186D-02 0.640D-01
 Coeff-Com:  0.337D-01 0.360D+00-0.295D+00-0.244D+01 0.189D+01-0.201D+01
 Coeff-Com:  0.612D+00-0.427D+00 0.996D+00 0.122D+01 0.221D+00 0.543D+01
 Coeff-Com: -0.365D+01-0.938D+00
 Coeff:      0.548D-01-0.522D-01-0.357D-01-0.389D-01 0.186D-02 0.640D-01
 Coeff:      0.337D-01 0.360D+00-0.295D+00-0.244D+01 0.189D+01-0.201D+01
 Coeff:      0.612D+00-0.427D+00 0.996D+00 0.122D+01 0.221D+00 0.543D+01
 Coeff:     -0.365D+01-0.938D+00
 Gap=     0.162 Goal=   None    Shift=    0.000
 RMSDP=2.23D-04 MaxDP=4.17D-03 DE=-1.97D-05 OVMax= 1.10D-02

 Cycle  32  Pass 1  IDiag  3:
 E=  2.16288765745799     Delta-E=        0.000049540121 Rises=F Damp=F
 DIIS: error= 2.29D-04 at cycle  32 NSaved=  20.
 NSaved=20 IEnMin=10 EnMin=  2.16255999757686     IErMin=16 ErrMin= 1.58D-04
 ErrMax= 2.29D-04  0.00D+00 EMaxC= 1.00D+00 BMatC= 2.08D-06 BMatP= 8.66D-07
 IDIUse=1 WtCom= 1.00D+00 WtEn= 0.00D+00
 Coeff-Com:  0.301D-01-0.368D-01-0.702D-01 0.350D-01-0.136D-01-0.519D-01
 Coeff-Com:  0.276D+00-0.209D+00-0.159D+01 0.169D+01-0.255D+01 0.381D+00
 Coeff-Com:  0.236D+00 0.772D+00 0.358D+00 0.521D+00 0.601D+01-0.316D+01
 Coeff-Com: -0.215D+00-0.142D+01
 Coeff:      0.301D-01-0.368D-01-0.702D-01 0.350D-01-0.136D-01-0.519D-01
 Coeff:      0.276D+00-0.209D+00-0.159D+01 0.169D+01-0.255D+01 0.381D+00
 Coeff:      0.236D+00 0.772D+00 0.358D+00 0.521D+00 0.601D+01-0.316D+01
 Coeff:     -0.215D+00-0.142D+01
 Gap=     0.162 Goal=   None    Shift=    0.000
 RMSDP=1.16D-04 MaxDP=2.20D-03 DE= 4.95D-05 OVMax= 5.63D-03

 Cycle  33  Pass 1  IDiag  3:
 E=  2.16291537894028     Delta-E=        0.000027721482 Rises=F Damp=F
 DIIS: error= 2.64D-04 at cycle  33 NSaved=  20.
 NSaved=20 IEnMin= 9 EnMin=  2.16255999757686     IErMin=15 ErrMin= 1.58D-04
 ErrMax= 2.64D-04  0.00D+00 EMaxC= 1.00D+00 BMatC= 2.65D-06 BMatP= 8.66D-07
 IDIUse=1 WtCom= 1.00D+00 WtEn= 0.00D+00
 Coeff-Com: -0.162D-01-0.121D-01 0.678D-01-0.982D-01-0.105D+00-0.175D-02
 Coeff-Com: -0.433D-01-0.145D+00-0.226D+00-0.105D+01-0.129D+00-0.420D-01
 Coeff-Com:  0.311D+00 0.246D-01 0.508D+00 0.575D+01-0.216D+01 0.127D+01
 Coeff-Com: -0.112D+01-0.180D+01
 Coeff:     -0.162D-01-0.121D-01 0.678D-01-0.982D-01-0.105D+00-0.175D-02
 Coeff:     -0.433D-01-0.145D+00-0.226D+00-0.105D+01-0.129D+00-0.420D-01
 Coeff:      0.311D+00 0.246D-01 0.508D+00 0.575D+01-0.216D+01 0.127D+01
 Coeff:     -0.112D+01-0.180D+01
 Gap=     0.162 Goal=   None    Shift=    0.000
 RMSDP=3.55D-05 MaxDP=5.90D-04 DE= 2.77D-05 OVMax= 1.55D-03

 Cycle  34  Pass 1  IDiag  3:
 E=  2.16292468256529     Delta-E=        0.000009303625 Rises=F Damp=F
 DIIS: error= 2.95D-04 at cycle  34 NSaved=  20.
 NSaved=20 IEnMin= 8 EnMin=  2.16255999757686     IErMin=14 ErrMin= 1.58D-04
 ErrMax= 2.95D-04  0.00D+00 EMaxC= 1.00D+00 BMatC= 3.25D-06 BMatP= 8.66D-07
 IDIUse=1 WtCom= 1.00D+00 WtEn= 0.00D+00
 Coeff-Com: -0.163D-01 0.671D-01-0.127D+00-0.111D+00-0.528D-01 0.417D-01
 Coeff-Com:  0.413D+00-0.833D+00-0.731D+00-0.213D+00 0.440D-01 0.153D+00
 Coeff-Com: -0.305D+00 0.486D+00 0.575D+01-0.200D+01 0.144D+01-0.971D+00
 Coeff-Com: -0.155D+01-0.491D+00
 Coeff:     -0.163D-01 0.671D-01-0.127D+00-0.111D+00-0.528D-01 0.417D-01
 Coeff:      0.413D+00-0.833D+00-0.731D+00-0.213D+00 0.440D-01 0.153D+00
 Coeff:     -0.305D+00 0.486D+00 0.575D+01-0.200D+01 0.144D+01-0.971D+00
 Coeff:     -0.155D+01-0.491D+00
 Gap=     0.162 Goal=   None    Shift=    0.000
 RMSDP=1.21D-05 MaxDP=2.23D-04 DE= 9.30D-06 OVMax= 5.66D-04

 Cycle  35  Pass 1  IDiag  3:
 E=  2.16292692519676     Delta-E=        0.000002242631 Rises=F Damp=F
 DIIS: error= 2.90D-04 at cycle  35 NSaved=  20.
 NSaved=20 IEnMin= 8 EnMin=  2.16255999757686     IErMin=14 ErrMin= 1.58D-04
 ErrMax= 2.90D-04  0.00D+00 EMaxC= 1.00D+00 BMatC= 3.16D-06 BMatP= 8.66D-07
 IDIUse=1 WtCom= 1.00D+00 WtEn= 0.00D+00
 Coeff-Com:  0.500D-01 0.238D-01-0.223D+00-0.909D-01-0.158D-01 0.214D+00
 Coeff-Com:  0.101D+01-0.171D+01-0.296D+00-0.111D+00 0.348D+00-0.133D-01
 Coeff-Com: -0.919D+00 0.423D+00 0.576D+01-0.203D+01 0.110D+01-0.770D+00
 Coeff-Com:  0.348D+00-0.210D+01
 Coeff:      0.500D-01 0.238D-01-0.223D+00-0.909D-01-0.158D-01 0.214D+00
 Coeff:      0.101D+01-0.171D+01-0.296D+00-0.111D+00 0.348D+00-0.133D-01
 Coeff:     -0.919D+00 0.423D+00 0.576D+01-0.203D+01 0.110D+01-0.770D+00
 Coeff:      0.348D+00-0.210D+01
 Gap=     0.162 Goal=   None    Shift=    0.000
 RMSDP=1.06D-04 MaxDP=1.97D-03 DE= 2.24D-06 OVMax= 5.23D-03

 Cycle  36  Pass 1  IDiag  3:
 E=  2.16290026663387     Delta-E=       -0.000026658563 Rises=F Damp=F
 DIIS: error= 2.47D-04 at cycle  36 NSaved=  20.
 NSaved=20 IEnMin= 8 EnMin=  2.16255999757686     IErMin=14 ErrMin= 1.58D-04
 ErrMax= 2.47D-04  0.00D+00 EMaxC= 1.00D+00 BMatC= 2.42D-06 BMatP= 8.66D-07
 IDIUse=1 WtCom= 1.00D+00 WtEn= 0.00D+00
 Coeff-Com:  0.452D-01 0.258D-01-0.219D+00-0.904D-01-0.109D-01 0.213D+00
 Coeff-Com:  0.942D+00-0.165D+01-0.314D+00-0.128D+00 0.387D+00-0.115D-01
 Coeff-Com: -0.934D+00 0.424D+00 0.599D+01-0.213D+01 0.106D+01-0.804D+00
 Coeff-Com: -0.154D+01-0.244D+00
 Coeff:      0.452D-01 0.258D-01-0.219D+00-0.904D-01-0.109D-01 0.213D+00
 Coeff:      0.942D+00-0.165D+01-0.314D+00-0.128D+00 0.387D+00-0.115D-01
 Coeff:     -0.934D+00 0.424D+00 0.599D+01-0.213D+01 0.106D+01-0.804D+00
 Coeff:     -0.154D+01-0.244D+00
 Gap=     0.162 Goal=   None    Shift=    0.000
 RMSDP=5.17D-06 MaxDP=5.63D-05 DE=-2.67D-05 OVMax= 8.46D-05

 Cycle  37  Pass 1  IDiag  3:
 E=  2.16290058775292     Delta-E=        0.000000321119 Rises=F Damp=F
 DIIS: error= 2.48D-04 at cycle  37 NSaved=  20.
 NSaved=20 IEnMin= 8 EnMin=  2.16255999757686     IErMin=14 ErrMin= 1.58D-04
 ErrMax= 2.48D-04  0.00D+00 EMaxC= 1.00D+00 BMatC= 2.40D-06 BMatP= 8.66D-07
 IDIUse=1 WtCom= 1.00D+00 WtEn= 0.00D+00
 Coeff-Com:  0.421D-01 0.212D-01-0.210D+00-0.111D+00-0.468D-02 0.200D+00
 Coeff-Com:  0.826D+00-0.160D+01-0.506D+00-0.852D-02 0.543D+00 0.377D-01
 Coeff-Com: -0.946D+00 0.487D+00 0.700D+01-0.253D+01 0.890D+00-0.935D+00
 Coeff-Com: -0.770D-01-0.211D+01
 Coeff:      0.421D-01 0.212D-01-0.210D+00-0.111D+00-0.468D-02 0.200D+00
 Coeff:      0.826D+00-0.160D+01-0.506D+00-0.852D-02 0.543D+00 0.377D-01
 Coeff:     -0.946D+00 0.487D+00 0.700D+01-0.253D+01 0.890D+00-0.935D+00
 Coeff:     -0.770D-01-0.211D+01
 Gap=     0.162 Goal=   None    Shift=    0.000
 RMSDP=7.01D-05 MaxDP=1.29D-03 DE= 3.21D-07 OVMax= 3.34D-03

 Cycle  38  Pass 1  IDiag  1:
 E=  2.16288543681401     Delta-E=       -0.000015150939 Rises=F Damp=F
 DIIS: error= 2.46D-04 at cycle  38 NSaved=  20.
 NSaved=20 IEnMin= 8 EnMin=  2.16255999757686     IErMin=14 ErrMin= 1.58D-04
 ErrMax= 2.46D-04  0.00D+00 EMaxC= 1.00D+00 BMatC= 2.35D-06 BMatP= 8.66D-07
 IDIUse=1 WtCom= 1.00D+00 WtEn= 0.00D+00
 Coeff-Com:  0.160D-01 0.434D-01-0.181D+00-0.112D+00-0.191D-01 0.159D+00
 Coeff-Com:  0.741D+00-0.139D+01-0.710D+00 0.900D-01 0.561D+00 0.874D-01
 Coeff-Com: -0.929D+00 0.525D+00 0.672D+01-0.242D+01 0.767D+00-0.923D+00
 Coeff-Com: -0.322D+01 0.119D+01
 Coeff:      0.160D-01 0.434D-01-0.181D+00-0.112D+00-0.191D-01 0.159D+00
 Coeff:      0.741D+00-0.139D+01-0.710D+00 0.900D-01 0.561D+00 0.874D-01
 Coeff:     -0.929D+00 0.525D+00 0.672D+01-0.242D+01 0.767D+00-0.923D+00
 Coeff:     -0.322D+01 0.119D+01
 RMSDP=6.76D-05 MaxDP=1.27D-03 DE=-1.52D-05 OVMax= 3.34D-03

 Cycle  39  Pass 1  IDiag  3:
 E=  2.16287089467482     Delta-E=       -0.000014542139 Rises=F Damp=F
 DIIS: error= 2.44D-04 at cycle  39 NSaved=  20.
 NSaved=20 IEnMin= 8 EnMin=  2.16255999757686     IErMin=14 ErrMin= 1.58D-04
 ErrMax= 2.44D-04  0.00D+00 EMaxC= 1.00D+00 BMatC= 2.28D-06 BMatP= 8.66D-07
 IDIUse=1 WtCom= 1.00D+00 WtEn= 0.00D+00
 Coeff-Com: -0.480D-02-0.363D-02-0.126D+00-0.856D-01 0.180D+00 0.611D-01
 Coeff-Com: -0.466D+00-0.156D+00-0.985D+00-0.104D+00 0.299D+00 0.335D+00
 Coeff-Com: -0.701D-01 0.333D+00 0.669D+01-0.316D+01 0.500D+00-0.122D+01
 Coeff-Com: -0.436D+01 0.334D+01
 Coeff:     -0.480D-02-0.363D-02-0.126D+00-0.856D-01 0.180D+00 0.611D-01
 Coeff:     -0.466D+00-0.156D+00-0.985D+00-0.104D+00 0.299D+00 0.335D+00
 Coeff:     -0.701D-01 0.333D+00 0.669D+01-0.316D+01 0.500D+00-0.122D+01
 Coeff:     -0.436D+01 0.334D+01
 Gap=     0.161 Goal=   None    Shift=    0.000
 RMSDP=1.41D-04 MaxDP=2.69D-03 DE=-1.45D-05 OVMax= 7.51D-03

 Cycle  40  Pass 1  IDiag  3:
 E=  2.16284026582321     Delta-E=       -0.000030628852 Rises=F Damp=F
 DIIS: error= 2.39D-04 at cycle  40 NSaved=  20.
 NSaved=20 IEnMin= 8 EnMin=  2.16255999757686     IErMin=14 ErrMin= 1.58D-04
 ErrMax= 2.39D-04  0.00D+00 EMaxC= 1.00D+00 BMatC= 2.21D-06 BMatP= 8.66D-07
 IDIUse=1 WtCom= 1.00D+00 WtEn= 0.00D+00
 Coeff-Com:  0.171D-01-0.484D-01-0.855D-01-0.234D-01 0.185D+00 0.403D-01
 Coeff-Com: -0.676D+00-0.215D+00-0.743D+00 0.226D+00-0.183D+00 0.407D+00
 Coeff-Com:  0.343D+00 0.113D+00 0.622D+01-0.334D+01 0.119D+00-0.436D+01
 Coeff-Com:  0.237D+01 0.636D+00
 Coeff:      0.171D-01-0.484D-01-0.855D-01-0.234D-01 0.185D+00 0.403D-01
 Coeff:     -0.676D+00-0.215D+00-0.743D+00 0.226D+00-0.183D+00 0.407D+00
 Coeff:      0.343D+00 0.113D+00 0.622D+01-0.334D+01 0.119D+00-0.436D+01
 Coeff:      0.237D+01 0.636D+00
 Gap=     0.161 Goal=   None    Shift=    0.000
 RMSDP=1.27D-04 MaxDP=2.42D-03 DE=-3.06D-05 OVMax= 6.79D-03

 Cycle  41  Pass 1  IDiag  3:
 E=  2.16281209224962     Delta-E=       -0.000028173574 Rises=F Damp=F
 DIIS: error= 2.18D-04 at cycle  41 NSaved=  20.
 NSaved=20 IEnMin= 8 EnMin=  2.16255999757686     IErMin=14 ErrMin= 1.58D-04
 ErrMax= 2.18D-04  0.00D+00 EMaxC= 1.00D+00 BMatC= 1.87D-06 BMatP= 8.66D-07
 IDIUse=1 WtCom= 1.00D+00 WtEn= 0.00D+00
 Coeff-Com:  0.252D-01-0.507D-01-0.615D-01 0.280D-01 0.219D+00-0.128D+00
 Coeff-Com: -0.108D+01 0.415D+00-0.140D+01 0.504D+00-0.225D+00 0.641D+00
 Coeff-Com:  0.506D+00 0.258D+00 0.533D+01-0.286D+01-0.114D+00-0.206D+01
 Coeff-Com:  0.390D+00 0.672D+00
 Coeff:      0.252D-01-0.507D-01-0.615D-01 0.280D-01 0.219D+00-0.128D+00
 Coeff:     -0.108D+01 0.415D+00-0.140D+01 0.504D+00-0.225D+00 0.641D+00
 Coeff:      0.506D+00 0.258D+00 0.533D+01-0.286D+01-0.114D+00-0.206D+01
 Coeff:      0.390D+00 0.672D+00
 Gap=     0.161 Goal=   None    Shift=    0.000
 RMSDP=3.15D-04 MaxDP=5.97D-03 DE=-2.82D-05 OVMax= 1.66D-02

 Cycle  42  Pass 1  IDiag  3:
 E=  2.16287971655026     Delta-E=        0.000067624301 Rises=F Damp=F
 DIIS: error= 2.32D-04 at cycle  42 NSaved=  20.
 NSaved=20 IEnMin= 8 EnMin=  2.16255999757686     IErMin=14 ErrMin= 1.58D-04
 ErrMax= 2.32D-04  0.00D+00 EMaxC= 1.00D+00 BMatC= 2.13D-06 BMatP= 8.66D-07
 IDIUse=1 WtCom= 1.00D+00 WtEn= 0.00D+00
 Coeff-Com: -0.695D-01-0.222D-01 0.510D-01 0.416D-01 0.443D+00-0.333D+00
 Coeff-Com: -0.253D+01 0.203D+01-0.195D+01 0.495D+00-0.289D+00 0.857D+00
 Coeff-Com:  0.100D+01 0.257D+00 0.512D+01-0.318D+01-0.603D+00-0.851D+00
 Coeff-Com:  0.102D+01-0.490D+00
 Coeff:     -0.695D-01-0.222D-01 0.510D-01 0.416D-01 0.443D+00-0.333D+00
 Coeff:     -0.253D+01 0.203D+01-0.195D+01 0.495D+00-0.289D+00 0.857D+00
 Coeff:      0.100D+01 0.257D+00 0.512D+01-0.318D+01-0.603D+00-0.851D+00
 Coeff:      0.102D+01-0.490D+00
 Gap=     0.161 Goal=   None    Shift=    0.000
 RMSDP=2.43D-05 MaxDP=2.84D-04 DE= 6.76D-05 OVMax= 8.02D-04

 Cycle  43  Pass 1  IDiag  3:
 E=  2.16287837337984     Delta-E=       -0.000001343170 Rises=F Damp=F
 DIIS: error= 2.32D-04 at cycle  43 NSaved=  20.
 NSaved=20 IEnMin= 8 EnMin=  2.16255999757686     IErMin=14 ErrMin= 1.58D-04
 ErrMax= 2.32D-04  0.00D+00 EMaxC= 1.00D+00 BMatC= 2.07D-06 BMatP= 8.66D-07
 IDIUse=1 WtCom= 1.00D+00 WtEn= 0.00D+00
 Coeff-Com: -0.127D+00 0.525D-01 0.102D+00 0.162D-01 0.143D+00-0.240D+00
 Coeff-Com: -0.154D+01 0.112D+01-0.886D+00-0.735D-01-0.389D+00 0.488D+00
 Coeff-Com:  0.867D+00-0.108D+00 0.297D+01 0.113D+01-0.378D+00 0.205D+01
 Coeff-Com: -0.403D+00-0.379D+01
 Coeff:     -0.127D+00 0.525D-01 0.102D+00 0.162D-01 0.143D+00-0.240D+00
 Coeff:     -0.154D+01 0.112D+01-0.886D+00-0.735D-01-0.389D+00 0.488D+00
 Coeff:      0.867D+00-0.108D+00 0.297D+01 0.113D+01-0.378D+00 0.205D+01
 Coeff:     -0.403D+00-0.379D+01
 Gap=     0.161 Goal=   None    Shift=    0.000
 RMSDP=3.84D-04 MaxDP=7.17D-03 DE=-1.34D-06 OVMax= 2.02D-02

 Cycle  44  Pass 1  IDiag  3:
 E=  2.16279785988650     Delta-E=       -0.000080513493 Rises=F Damp=F
 DIIS: error= 2.05D-04 at cycle  44 NSaved=  20.
 NSaved=20 IEnMin= 8 EnMin=  2.16255999757686     IErMin=14 ErrMin= 1.58D-04
 ErrMax= 2.05D-04  0.00D+00 EMaxC= 1.00D+00 BMatC= 1.88D-06 BMatP= 8.66D-07
 IDIUse=1 WtCom= 1.00D+00 WtEn= 0.00D+00
 Coeff-Com: -0.128D+00 0.568D-01 0.100D+00 0.199D-01 0.118D+00-0.250D+00
 Coeff-Com: -0.148D+01 0.123D+01-0.106D+01-0.479D-01-0.522D+00 0.564D+00
 Coeff-Com:  0.110D+01-0.170D+00 0.266D+01 0.110D+01-0.285D+00 0.180D+01
 Coeff-Com: -0.395D+01 0.144D+00
 Coeff:     -0.128D+00 0.568D-01 0.100D+00 0.199D-01 0.118D+00-0.250D+00
 Coeff:     -0.148D+01 0.123D+01-0.106D+01-0.479D-01-0.522D+00 0.564D+00
 Coeff:      0.110D+01-0.170D+00 0.266D+01 0.110D+01-0.285D+00 0.180D+01
 Coeff:     -0.395D+01 0.144D+00
 Gap=     0.161 Goal=   None    Shift=    0.000
 RMSDP=3.10D-05 MaxDP=5.34D-04 DE=-8.05D-05 OVMax= 1.36D-03

 Cycle  45  Pass 1  IDiag  3:
 E=  2.16279150823857     Delta-E=       -0.000006351648 Rises=F Damp=F
 DIIS: error= 2.08D-04 at cycle  45 NSaved=  20.
 NSaved=20 IEnMin= 8 EnMin=  2.16255999757686     IErMin=14 ErrMin= 1.58D-04
 ErrMax= 2.08D-04  0.00D+00 EMaxC= 1.00D+00 BMatC= 1.69D-06 BMatP= 8.66D-07
 IDIUse=1 WtCom= 1.00D+00 WtEn= 0.00D+00
 Coeff-Com: -0.112D+00 0.129D-01 0.115D+00 0.157D+00 0.430D+00-0.280D+00
 Coeff-Com: -0.243D+01 0.183D+01-0.157D+01 0.207D+00-0.126D+01 0.127D+01
 Coeff-Com:  0.310D+01-0.460D+00-0.118D+01-0.242D+00-0.138D+01 0.955D+00
 Coeff-Com:  0.202D+00 0.164D+01
 Coeff:     -0.112D+00 0.129D-01 0.115D+00 0.157D+00 0.430D+00-0.280D+00
 Coeff:     -0.243D+01 0.183D+01-0.157D+01 0.207D+00-0.126D+01 0.127D+01
 Coeff:      0.310D+01-0.460D+00-0.118D+01-0.242D+00-0.138D+01 0.955D+00
 Coeff:      0.202D+00 0.164D+01
 Gap=     0.161 Goal=   None    Shift=    0.000
 RMSDP=3.23D-04 MaxDP=6.24D-03 DE=-6.35D-06 OVMax= 1.73D-02

 Cycle  46  Pass 1  IDiag  3:
 E=  2.16272400178661     Delta-E=       -0.000067506452 Rises=F Damp=F
 DIIS: error= 1.78D-04 at cycle  46 NSaved=  20.
 NSaved=20 IEnMin= 8 EnMin=  2.16255999757686     IErMin=14 ErrMin= 1.58D-04
 ErrMax= 1.78D-04  0.00D+00 EMaxC= 1.00D+00 BMatC= 1.47D-06 BMatP= 8.66D-07
 IDIUse=1 WtCom= 1.00D+00 WtEn= 0.00D+00
 Coeff-Com: -0.145D+00-0.103D-02 0.205D+00 0.186D+00 0.457D+00-0.401D+00
 Coeff-Com: -0.322D+01 0.285D+01-0.214D+01 0.556D+00-0.147D+01 0.150D+01
 Coeff-Com:  0.350D+01-0.518D+00-0.154D+01-0.719D+00 0.408D+00-0.593D-02
 Coeff-Com:  0.156D+01-0.779D-01
 Coeff:     -0.145D+00-0.103D-02 0.205D+00 0.186D+00 0.457D+00-0.401D+00
 Coeff:     -0.322D+01 0.285D+01-0.214D+01 0.556D+00-0.147D+01 0.150D+01
 Coeff:      0.350D+01-0.518D+00-0.154D+01-0.719D+00 0.408D+00-0.593D-02
 Coeff:      0.156D+01-0.779D-01
 Gap=     0.161 Goal=   None    Shift=    0.000
 RMSDP=7.14D-05 MaxDP=1.38D-03 DE=-6.75D-05 OVMax= 3.70D-03

 Cycle  47  Pass 1  IDiag  3:
 E=  2.16270894354250     Delta-E=       -0.000015058244 Rises=F Damp=F
 DIIS: error= 1.85D-04 at cycle  47 NSaved=  20.
 NSaved=20 IEnMin= 8 EnMin=  2.16255999757686     IErMin=14 ErrMin= 1.58D-04
 ErrMax= 1.85D-04  0.00D+00 EMaxC= 1.00D+00 BMatC= 1.36D-06 BMatP= 8.66D-07
 IDIUse=1 WtCom= 1.00D+00 WtEn= 0.00D+00
 Coeff-Com: -0.875D-01 0.180D-01 0.101D+00 0.163D+00 0.330D+00-0.177D+00
 Coeff-Com: -0.191D+01 0.102D+01-0.134D+01 0.476D+00-0.148D+01 0.131D+01
 Coeff-Com:  0.344D+01-0.481D+00-0.253D+01 0.162D+00 0.385D-01 0.198D+00
 Coeff-Com: -0.466D-01 0.179D+01
 Coeff:     -0.875D-01 0.180D-01 0.101D+00 0.163D+00 0.330D+00-0.177D+00
 Coeff:     -0.191D+01 0.102D+01-0.134D+01 0.476D+00-0.148D+01 0.131D+01
 Coeff:      0.344D+01-0.481D+00-0.253D+01 0.162D+00 0.385D-01 0.198D+00
 Coeff:     -0.466D-01 0.179D+01
 Gap=     0.162 Goal=   None    Shift=    0.000
 RMSDP=7.62D-04 MaxDP=1.53D-02 DE=-1.51D-05 OVMax= 4.08D-02

 Cycle  48  Pass 1  IDiag  3:
 E=  2.16254825192038     Delta-E=       -0.000160691622 Rises=F Damp=F
 DIIS: error= 2.52D-04 at cycle  48 NSaved=  20.
 NSaved=20 IEnMin=20 EnMin=  2.16254825192038     IErMin=14 ErrMin= 1.60D-04
 ErrMax= 2.52D-04  0.00D+00 EMaxC= 1.00D+00 BMatC= 3.10D-06 BMatP= 8.66D-07
 IDIUse=1 WtCom= 1.00D+00 WtEn= 0.00D+00
 Coeff-Com: -0.236D-01 0.150D-01 0.431D-04 0.127D+00 0.950D-01 0.284D+00
 Coeff-Com:  0.525D+00-0.149D+01-0.234D+00-0.130D+00-0.105D+01 0.432D+00
 Coeff-Com:  0.229D+01-0.224D+01 0.156D+00 0.468D+00-0.141D+01 0.130D+01
 Coeff-Com:  0.262D+01-0.748D+00
 Coeff:     -0.236D-01 0.150D-01 0.431D-04 0.127D+00 0.950D-01 0.284D+00
 Coeff:      0.525D+00-0.149D+01-0.234D+00-0.130D+00-0.105D+01 0.432D+00
 Coeff:      0.229D+01-0.224D+01 0.156D+00 0.468D+00-0.141D+01 0.130D+01
 Coeff:      0.262D+01-0.748D+00
 Gap=     0.162 Goal=     0.100 Shift=    0.000
 RMSDP=4.68D-04 MaxDP=9.59D-03 DE=-1.61D-04 OVMax= 2.50D-02

 Cycle  49  Pass 1  IDiag  3:
 E=  2.16264933964226     Delta-E=        0.000101087722 Rises=F Damp=F
 DIIS: error= 2.16D-04 at cycle  49 NSaved=  20.
 NSaved=20 IEnMin=19 EnMin=  2.16254825192038     IErMin=13 ErrMin= 1.62D-04
 ErrMax= 2.16D-04  0.00D+00 EMaxC= 1.00D+00 BMatC= 1.89D-06 BMatP= 8.66D-07
 IDIUse=1 WtCom= 1.00D+00 WtEn= 0.00D+00
 Coeff-Com:  0.231D-01-0.296D-01-0.761D-01 0.779D-01 0.127D+00 0.308D+00
 Coeff-Com:  0.822D+00-0.175D+01-0.273D+00 0.364D-01-0.843D+00 0.186D+00
 Coeff-Com:  0.144D+01-0.282D+00 0.359D+00-0.215D+01 0.142D+01 0.227D+01
 Coeff-Com: -0.760D+00 0.980D-01
 Coeff:      0.231D-01-0.296D-01-0.761D-01 0.779D-01 0.127D+00 0.308D+00
 Coeff:      0.822D+00-0.175D+01-0.273D+00 0.364D-01-0.843D+00 0.186D+00
 Coeff:      0.144D+01-0.282D+00 0.359D+00-0.215D+01 0.142D+01 0.227D+01
 Coeff:     -0.760D+00 0.980D-01
 Gap=     0.161 Goal=   None    Shift=    0.000
 RMSDP=6.90D-04 MaxDP=1.36D-02 DE= 1.01D-04 OVMax= 3.68D-02

 Cycle  50  Pass 1  IDiag  3:
 E=  2.16279142412714     Delta-E=        0.000142084485 Rises=F Damp=F
 DIIS: error= 1.87D-04 at cycle  50 NSaved=  20.
 NSaved=20 IEnMin=18 EnMin=  2.16254825192038     IErMin=13 ErrMin= 1.62D-04
 ErrMax= 1.87D-04  0.00D+00 EMaxC= 1.00D+00 BMatC= 1.49D-06 BMatP= 8.66D-07
 IDIUse=1 WtCom= 1.00D+00 WtEn= 0.00D+00
 Coeff-Com:  0.543D-02 0.363D-01-0.107D+00 0.877D-01 0.167D+00 0.261D+00
 Coeff-Com:  0.356D+00-0.175D+01 0.698D-01-0.321D-02-0.575D+00 0.232D+00
 Coeff-Com:  0.113D+01 0.964D-01-0.117D+01 0.102D+01 0.450D+01-0.170D+01
 Coeff-Com:  0.437D+00-0.210D+01
 Coeff:      0.543D-02 0.363D-01-0.107D+00 0.877D-01 0.167D+00 0.261D+00
 Coeff:      0.356D+00-0.175D+01 0.698D-01-0.321D-02-0.575D+00 0.232D+00
 Coeff:      0.113D+01 0.964D-01-0.117D+01 0.102D+01 0.450D+01-0.170D+01
 Coeff:      0.437D+00-0.210D+01
 Gap=     0.162 Goal=   None    Shift=    0.000
 RMSDP=1.87D-04 MaxDP=3.64D-03 DE= 1.42D-04 OVMax= 9.70D-03

 Cycle  51  Pass 1  IDiag  3:
 E=  2.16283362880972     Delta-E=        0.000042204683 Rises=F Damp=F
 DIIS: error= 2.57D-04 at cycle  51 NSaved=  20.
 NSaved=20 IEnMin=17 EnMin=  2.16254825192038     IErMin=13 ErrMin= 1.62D-04
 ErrMax= 2.57D-04  0.00D+00 EMaxC= 1.00D+00 BMatC= 2.44D-06 BMatP= 8.66D-07
 IDIUse=1 WtCom= 1.00D+00 WtEn= 0.00D+00
 Coeff-Com:  0.104D-01 0.364D-01-0.110D+00 0.661D-01 0.155D+00 0.296D+00
 Coeff-Com:  0.330D+00-0.184D+01 0.152D+00-0.174D+00-0.546D+00 0.330D+00
 Coeff-Com:  0.115D+01-0.295D+00 0.781D+00 0.422D+01-0.162D+01 0.637D+00
 Coeff-Com: -0.201D+01-0.570D+00
 Coeff:      0.104D-01 0.364D-01-0.110D+00 0.661D-01 0.155D+00 0.296D+00
 Coeff:      0.330D+00-0.184D+01 0.152D+00-0.174D+00-0.546D+00 0.330D+00
 Coeff:      0.115D+01-0.295D+00 0.781D+00 0.422D+01-0.162D+01 0.637D+00
 Coeff:     -0.201D+01-0.570D+00
 Gap=     0.162 Goal=   None    Shift=    0.000
 RMSDP=5.06D-05 MaxDP=9.78D-04 DE= 4.22D-05 OVMax= 2.56D-03

 Cycle  52  Pass 1  IDiag  3:
 E=  2.16282340249450     Delta-E=       -0.000010226315 Rises=F Damp=F
 DIIS: error= 2.53D-04 at cycle  52 NSaved=  20.
 NSaved=20 IEnMin=16 EnMin=  2.16254825192038     IErMin=13 ErrMin= 1.62D-04
 ErrMax= 2.53D-04  0.00D+00 EMaxC= 1.00D+00 BMatC= 2.38D-06 BMatP= 8.66D-07
 IDIUse=1 WtCom= 1.00D+00 WtEn= 0.00D+00
 Coeff-Com:  0.165D-01 0.393D-01-0.126D+00 0.716D-01 0.149D+00 0.300D+00
 Coeff-Com:  0.414D+00-0.193D+01 0.143D+00-0.164D+00-0.527D+00 0.310D+00
 Coeff-Com:  0.113D+01 0.771D+00 0.407D+01-0.158D+01 0.675D+00-0.194D+01
 Coeff-Com: -0.438D+00-0.368D+00
 Coeff:      0.165D-01 0.393D-01-0.126D+00 0.716D-01 0.149D+00 0.300D+00
 Coeff:      0.414D+00-0.193D+01 0.143D+00-0.164D+00-0.527D+00 0.310D+00
 Coeff:      0.113D+01 0.771D+00 0.407D+01-0.158D+01 0.675D+00-0.194D+01
 Coeff:     -0.438D+00-0.368D+00
 Gap=     0.162 Goal=   None    Shift=    0.000
 RMSDP=9.07D-06 MaxDP=1.57D-04 DE=-1.02D-05 OVMax= 4.38D-04

 Cycle  53  Pass 1  IDiag  3:
 E=  2.16282154186160     Delta-E=       -0.000001860633 Rises=F Damp=F
 DIIS: error= 2.51D-04 at cycle  53 NSaved=  20.
 NSaved=20 IEnMin=16 EnMin=  2.16254825192038     IErMin=13 ErrMin= 1.62D-04
 ErrMax= 2.51D-04  0.00D+00 EMaxC= 1.00D+00 BMatC= 2.34D-06 BMatP= 8.66D-07
 IDIUse=1 WtCom= 1.00D+00 WtEn= 0.00D+00
 Coeff-Com:  0.222D-01 0.434D-01-0.148D+00 0.904D-01 0.150D+00 0.288D+00
 Coeff-Com:  0.531D+00-0.201D+01 0.103D+00-0.720D-01-0.517D+00 0.236D+00
 Coeff-Com:  0.109D+01 0.871D+00 0.401D+01-0.156D+01 0.633D+00-0.193D+01
 Coeff-Com: -0.735D+00-0.101D+00
 Coeff:      0.222D-01 0.434D-01-0.148D+00 0.904D-01 0.150D+00 0.288D+00
 Coeff:      0.531D+00-0.201D+01 0.103D+00-0.720D-01-0.517D+00 0.236D+00
 Coeff:      0.109D+01 0.871D+00 0.401D+01-0.156D+01 0.633D+00-0.193D+01
 Coeff:     -0.735D+00-0.101D+00
 Gap=     0.162 Goal=   None    Shift=    0.000
 RMSDP=5.48D-06 MaxDP=1.33D-04 DE=-1.86D-06 OVMax= 2.40D-04

 Cycle  54  Pass 1  IDiag  3:
 E=  2.16282027373052     Delta-E=       -0.000001268131 Rises=F Damp=F
 DIIS: error= 2.47D-04 at cycle  54 NSaved=  20.
 NSaved=20 IEnMin=16 EnMin=  2.16254825192038     IErMin=13 ErrMin= 1.62D-04
 ErrMax= 2.47D-04  0.00D+00 EMaxC= 1.00D+00 BMatC= 2.26D-06 BMatP= 8.66D-07
 IDIUse=1 WtCom= 1.00D+00 WtEn= 0.00D+00
 Coeff-Com:  0.274D-01 0.360D-01-0.152D+00 0.957D-01 0.160D+00 0.306D+00
 Coeff-Com:  0.564D+00-0.208D+01 0.915D-01-0.331D-01-0.500D+00 0.228D+00
 Coeff-Com:  0.106D+01 0.848D+00 0.405D+01-0.156D+01 0.624D+00-0.190D+01
 Coeff-Com: -0.545D+00-0.315D+00
 Coeff:      0.274D-01 0.360D-01-0.152D+00 0.957D-01 0.160D+00 0.306D+00
 Coeff:      0.564D+00-0.208D+01 0.915D-01-0.331D-01-0.500D+00 0.228D+00
 Coeff:      0.106D+01 0.848D+00 0.405D+01-0.156D+01 0.624D+00-0.190D+01
 Coeff:     -0.545D+00-0.315D+00
 Gap=     0.162 Goal=   None    Shift=    0.000
 RMSDP=3.70D-06 MaxDP=7.28D-05 DE=-1.27D-06 OVMax= 1.83D-04

 Cycle  55  Pass 1  IDiag  3:
 E=  2.16281948083088     Delta-E=       -0.000000792900 Rises=F Damp=F
 DIIS: error= 2.46D-04 at cycle  55 NSaved=  20.
 NSaved=20 IEnMin=16 EnMin=  2.16254825192038     IErMin=13 ErrMin= 1.62D-04
 ErrMax= 2.46D-04  0.00D+00 EMaxC= 1.00D+00 BMatC= 2.25D-06 BMatP= 8.66D-07
 IDIUse=1 WtCom= 1.00D+00 WtEn= 0.00D+00
 Coeff-Com:  0.318D-01 0.357D-01-0.154D+00 0.933D-01 0.156D+00 0.310D+00
 Coeff-Com:  0.540D+00-0.204D+01 0.779D-01-0.381D-01-0.484D+00 0.224D+00
 Coeff-Com:  0.103D+01 0.865D+00 0.410D+01-0.157D+01 0.596D+00-0.193D+01
 Coeff-Com: -0.494D+01 0.409D+01
 Coeff:      0.318D-01 0.357D-01-0.154D+00 0.933D-01 0.156D+00 0.310D+00
 Coeff:      0.540D+00-0.204D+01 0.779D-01-0.381D-01-0.484D+00 0.224D+00
 Coeff:      0.103D+01 0.865D+00 0.410D+01-0.157D+01 0.596D+00-0.193D+01
 Coeff:     -0.494D+01 0.409D+01
 Gap=     0.162 Goal=   None    Shift=    0.000
 RMSDP=4.06D-06 MaxDP=8.29D-05 DE=-7.93D-07 OVMax= 1.60D-04

 Cycle  56  Pass 1  IDiag  3:
 E=  2.16281924015050     Delta-E=       -0.000000240680 Rises=F Damp=F
 DIIS: error= 2.48D-04 at cycle  56 NSaved=  20.
 NSaved=20 IEnMin=16 EnMin=  2.16254825192038     IErMin=13 ErrMin= 1.62D-04
 ErrMax= 2.48D-04  0.00D+00 EMaxC= 1.00D+00 BMatC= 2.28D-06 BMatP= 8.66D-07
 IDIUse=1 WtCom= 1.00D+00 WtEn= 0.00D+00
 Coeff-Com:  0.305D-01 0.294D-01-0.149D+00 0.987D-01 0.163D+00 0.301D+00
 Coeff-Com:  0.537D+00-0.206D+01 0.101D+00-0.220D-01-0.512D+00 0.232D+00
 Coeff-Com:  0.109D+01 0.858D+00 0.405D+01-0.157D+01 0.619D+00-0.193D+01
 Coeff-Com: -0.223D+01 0.136D+01
 Coeff:      0.305D-01 0.294D-01-0.149D+00 0.987D-01 0.163D+00 0.301D+00
 Coeff:      0.537D+00-0.206D+01 0.101D+00-0.220D-01-0.512D+00 0.232D+00
 Coeff:      0.109D+01 0.858D+00 0.405D+01-0.157D+01 0.619D+00-0.193D+01
 Coeff:     -0.223D+01 0.136D+01
 Gap=     0.162 Goal=   None    Shift=    0.000
 RMSDP=2.08D-06 MaxDP=4.42D-05 DE=-2.41D-07 OVMax= 7.23D-05

 Cycle  57  Pass 1  IDiag  3:
 E=  2.16281946703566     Delta-E=        0.000000226885 Rises=F Damp=F
 DIIS: error= 2.47D-04 at cycle  57 NSaved=  20.
 NSaved=20 IEnMin=16 EnMin=  2.16254825192038     IErMin=13 ErrMin= 1.62D-04
 ErrMax= 2.47D-04  0.00D+00 EMaxC= 1.00D+00 BMatC= 2.26D-06 BMatP= 8.66D-07
 IDIUse=1 WtCom= 1.00D+00 WtEn= 0.00D+00
 Coeff-Com:  0.200D-01 0.384D-01-0.142D+00 0.960D-01 0.165D+00 0.299D+00
 Coeff-Com:  0.498D+00-0.201D+01 0.858D-01-0.337D-01-0.516D+00 0.236D+00
 Coeff-Com:  0.110D+01 0.833D+00 0.403D+01-0.157D+01 0.624D+00-0.194D+01
 Coeff-Com: -0.687D+00-0.129D+00
 Coeff:      0.200D-01 0.384D-01-0.142D+00 0.960D-01 0.165D+00 0.299D+00
 Coeff:      0.498D+00-0.201D+01 0.858D-01-0.337D-01-0.516D+00 0.236D+00
 Coeff:      0.110D+01 0.833D+00 0.403D+01-0.157D+01 0.624D+00-0.194D+01
 Coeff:     -0.687D+00-0.129D+00
 Gap=     0.162 Goal=   None    Shift=    0.000
 RMSDP=1.99D-05 MaxDP=4.39D-04 DE= 2.27D-07 OVMax= 9.96D-04

 Cycle  58  Pass 1  IDiag  3:
 E=  2.16282343859905     Delta-E=        0.000003971563 Rises=F Damp=F
 DIIS: error= 2.47D-04 at cycle  58 NSaved=  20.
 NSaved=20 IEnMin=16 EnMin=  2.16254825192038     IErMin=13 ErrMin= 1.62D-04
 ErrMax= 2.47D-04  0.00D+00 EMaxC= 1.00D+00 BMatC= 2.27D-06 BMatP= 8.66D-07
 IDIUse=1 WtCom= 1.00D+00 WtEn= 0.00D+00
 Coeff-Com:  0.308D-01 0.317D-01-0.152D+00 0.102D+00 0.130D+00 0.269D+00
 Coeff-Com:  0.611D+00-0.200D+01-0.141D-01 0.631D-01-0.499D+00 0.194D+00
 Coeff-Com:  0.106D+01 0.779D+00 0.417D+01-0.161D+01 0.613D+00-0.197D+01
 Coeff-Com:  0.285D+01-0.365D+01
 Coeff:      0.308D-01 0.317D-01-0.152D+00 0.102D+00 0.130D+00 0.269D+00
 Coeff:      0.611D+00-0.200D+01-0.141D-01 0.631D-01-0.499D+00 0.194D+00
 Coeff:      0.106D+01 0.779D+00 0.417D+01-0.161D+01 0.613D+00-0.197D+01
 Coeff:      0.285D+01-0.365D+01
 Gap=     0.162 Goal=   None    Shift=    0.000
 RMSDP=5.71D-05 MaxDP=1.28D-03 DE= 3.97D-06 OVMax= 2.82D-03

 Cycle  59  Pass 1  IDiag  3:
 E=  2.16281241490060     Delta-E=       -0.000011023698 Rises=F Damp=F
 DIIS: error= 2.49D-04 at cycle  59 NSaved=  20.
 NSaved=20 IEnMin=16 EnMin=  2.16254825192038     IErMin=13 ErrMin= 1.62D-04
 ErrMax= 2.49D-04  0.00D+00 EMaxC= 1.00D+00 BMatC= 2.31D-06 BMatP= 8.66D-07
 IDIUse=1 WtCom= 1.00D+00 WtEn= 0.00D+00
 Coeff-Com:  0.338D-01 0.266D-01-0.150D+00 0.104D+00 0.140D+00 0.275D+00
 Coeff-Com:  0.532D+00-0.196D+01 0.848D-02 0.509D-01-0.493D+00 0.210D+00
 Coeff-Com:  0.107D+01 0.792D+00 0.411D+01-0.162D+01 0.627D+00-0.196D+01
 Coeff-Com: -0.192D+01 0.112D+01
 Coeff:      0.338D-01 0.266D-01-0.150D+00 0.104D+00 0.140D+00 0.275D+00
 Coeff:      0.532D+00-0.196D+01 0.848D-02 0.509D-01-0.493D+00 0.210D+00
 Coeff:      0.107D+01 0.792D+00 0.411D+01-0.162D+01 0.627D+00-0.196D+01
 Coeff:     -0.192D+01 0.112D+01
 Gap=     0.162 Goal=   None    Shift=    0.000
 RMSDP=6.85D-06 MaxDP=1.60D-04 DE=-1.10D-05 OVMax= 2.80D-04

 Cycle  60  Pass 1  IDiag  3:
 E=  2.16281128953676     Delta-E=       -0.000001125364 Rises=F Damp=F
 DIIS: error= 2.49D-04 at cycle  60 NSaved=  20.
 NSaved=20 IEnMin=16 EnMin=  2.16254825192038     IErMin=13 ErrMin= 1.62D-04
 ErrMax= 2.49D-04  0.00D+00 EMaxC= 1.00D+00 BMatC= 2.32D-06 BMatP= 8.66D-07
 IDIUse=1 WtCom= 1.00D+00 WtEn= 0.00D+00
 Coeff-Com:  0.808D-02 0.421D-01-0.125D+00 0.101D+00 0.173D+00 0.282D+00
 Coeff-Com:  0.358D+00-0.184D+01 0.626D-01-0.416D-01-0.537D+00 0.242D+00
 Coeff-Com:  0.114D+01 0.811D+00 0.399D+01-0.160D+01 0.619D+00-0.201D+01
 Coeff-Com: -0.103D-02-0.685D+00
 Coeff:      0.808D-02 0.421D-01-0.125D+00 0.101D+00 0.173D+00 0.282D+00
 Coeff:      0.358D+00-0.184D+01 0.626D-01-0.416D-01-0.537D+00 0.242D+00
 Coeff:      0.114D+01 0.811D+00 0.399D+01-0.160D+01 0.619D+00-0.201D+01
 Coeff:     -0.103D-02-0.685D+00
 Gap=     0.162 Goal=   None    Shift=    0.000
 RMSDP=1.42D-04 MaxDP=3.08D-03 DE=-1.13D-06 OVMax= 7.26D-03

 Cycle  61  Pass 1  IDiag  3:
 E=  2.16284040030791     Delta-E=        0.000029110771 Rises=F Damp=F
 DIIS: error= 2.54D-04 at cycle  61 NSaved=  20.
 NSaved=20 IEnMin=16 EnMin=  2.16254825192038     IErMin=13 ErrMin= 1.62D-04
 ErrMax= 2.54D-04  0.00D+00 EMaxC= 1.00D+00 BMatC= 2.38D-06 BMatP= 8.66D-07
 IDIUse=1 WtCom= 1.00D+00 WtEn= 0.00D+00
 Coeff-Com:  0.158D-01 0.307D-01-0.110D+00 0.941D-01 0.123D+00 0.265D+00
 Coeff-Com:  0.334D+00-0.172D+01-0.178D-01 0.109D+00-0.531D+00 0.231D+00
 Coeff-Com:  0.105D+01 0.667D+00 0.404D+01-0.169D+01 0.664D+00-0.196D+01
 Coeff-Com:  0.627D+00-0.122D+01
 Coeff:      0.158D-01 0.307D-01-0.110D+00 0.941D-01 0.123D+00 0.265D+00
 Coeff:      0.334D+00-0.172D+01-0.178D-01 0.109D+00-0.531D+00 0.231D+00
 Coeff:      0.105D+01 0.667D+00 0.404D+01-0.169D+01 0.664D+00-0.196D+01
 Coeff:      0.627D+00-0.122D+01
 Gap=     0.162 Goal=   None    Shift=    0.000
 RMSDP=1.00D-04 MaxDP=2.31D-03 DE= 2.91D-05 OVMax= 4.80D-03

 Cycle  62  Pass 1  IDiag  3:
 E=  2.16282139792236     Delta-E=       -0.000019002386 Rises=F Damp=F
[...]
 Gradient too large for Newton-Raphson -- use scaled steepest descent instead.
 Alpha Gap=     0.173 HL deriv= 6.52D-04
     ILin= 1 X=0.000D+00 Y= 2.156363846348D+00 DE= 0.00D+00 F= -6.52D-04
     ILin= 2 X=9.000D-01 Y= 2.155854782605D+00 DE=-5.09D-04 F= -4.77D-04 OKLS=F
     ILin= 3 X=1.800D+00 Y= 2.155509766537D+00 DE=-8.54D-04 F= -2.88D-04
     Reject lnstep IMin12=  2  3 Big=T Turn=F Min= 3.286D+00 FVal= 2.155138421514D+00 Lims=  9.00D-01  1.80D+00
     ILin= 4 X=3.600D+00 Y= 2.155363079845D+00 DE=-1.00D-03 F=  1.34D-04
     Accept linear search using points  3 and  4.
     An  expanding polynomial of degree  4 produced  3.3039
     Minimum is close to point  4 DX= -2.96D-01 DF= -1.06D-05 DXR=  8.96D-02 DFR=  1.06D-02 which will be used.
 Iteration   6 EE=  2.15536307984485     Delta-E=       -0.001000766504 Grad=2.530D-02 Max rot=    0.2921 deg.
 Gradient too large for Newton-Raphson -- use scaled steepest descent instead.
 Alpha Gap=     0.177 HL deriv= 5.86D-04
     ILin= 1 X=0.000D+00 Y= 2.155363079845D+00 DE= 0.00D+00 F= -2.43D-03
     ILin= 2 X=1.700D+00 Y= 2.155580701787D+00 DE= 2.18D-04 F=  2.65D-03 OKLS=T
     Reject lnstep IMin12=  1  2 Big=F Turn=F Min= 7.597D-01 FVal= 2.154829277562D+00 Lims=  0.00D+00  1.70D+00
     ILin= 3 X=8.000D-01 Y= 2.154387671389D+00 DE=-9.75D-04 F= -1.25D-05
     A contracting polynomial of degree  3 produced  0.8072
     Minimum is close to point  3 DX=  7.24D-03 DF= -7.85D-08 DXR=  8.97D-03 DFR=  8.05D-05 which will be used.
 Iteration   7 EE=  2.15438767138858     Delta-E=       -0.000975408456 Grad=7.683D-03 Max rot=    0.1871 deg.
 QCNR:  CnvC1=6.26D-09 CnvC2=6.26D-08
 LinEq1:  Iter=  0 NonCon=     1 RMS=5.19D-04 Max=1.21D-02 NDo=     1
 LinEq1:  Iter=  1 NonCon=     1 RMS=2.28D-04 Max=2.97D-03 NDo=     1
 LinEq1:  Iter=  2 NonCon=     1 RMS=4.10D-05 Max=5.19D-04 NDo=     1
 LinEq1:  Iter=  3 NonCon=     1 RMS=7.48D-06 Max=1.06D-04 NDo=     1
 LinEq1:  Iter=  4 NonCon=     1 RMS=2.91D-06 Max=4.24D-05 NDo=     1
 LinEq1:  Iter=  5 NonCon=     1 RMS=1.16D-06 Max=2.06D-05 NDo=     1
 LinEq1:  Iter=  6 NonCon=     1 RMS=4.31D-07 Max=5.68D-06 NDo=     1
 LinEq1:  Iter=  7 NonCon=     1 RMS=1.27D-07 Max=1.71D-06 NDo=     1
 LinEq1:  Iter=  8 NonCon=     1 RMS=3.30D-08 Max=3.67D-07 NDo=     1
 LinEq1:  Iter=  9 NonCon=     1 RMS=8.64D-09 Max=1.24D-07 NDo=     1
 LinEq1:  Iter= 10 NonCon=     0 RMS=2.50D-09 Max=3.54D-08 NDo=     1
 Linear equations converged to 6.261D-09 6.261D-08 after    10 iterations.
 Angle between quadratic step and gradient=  37.54 degrees.
     ILin= 1 X=0.000D+00 Y= 2.154387671389D+00 DE= 0.00D+00 F= -9.39D-03
     ILin= 2 X=1.000D+00 Y= 2.160162523673D+00 DE= 5.77D-03 F=  3.09D-02 OKLS=T
     Reject lnstep IMin12=  1  2 Big=F Turn=F Min= 4.081D-01 FVal= 2.152211294082D+00 Lims=  0.00D+00  1.00D+00
     ILin= 3 X=4.000D-01 Y= 2.151991893441D+00 DE=-2.40D-03 F= -8.34D-04
     A contracting polynomial of degree  3 produced  0.3527
 Iteration   8 EE=  2.15206946223964     Delta-E=       -0.002318209149 Grad=6.001D-03 Max rot=    0.0887 deg.
 QCNR:  CnvC1=6.26D-09 CnvC2=6.26D-08
 LinEq1:  Iter=  0 NonCon=     1 RMS=2.34D-04 Max=4.33D-03 NDo=     1
 LinEq1:  Iter=  1 NonCon=     1 RMS=1.62D-04 Max=4.00D-03 NDo=     1
 LinEq1:  Iter=  2 NonCon=     1 RMS=3.79D-05 Max=5.84D-04 NDo=     1
 LinEq1:  Iter=  3 NonCon=     1 RMS=1.68D-05 Max=2.36D-04 NDo=     1
 LinEq1:  Iter=  4 NonCon=     1 RMS=3.60D-06 Max=4.71D-05 NDo=     1
 LinEq1:  Iter=  5 NonCon=     1 RMS=1.41D-06 Max=2.83D-05 NDo=     1
 LinEq1:  Iter=  6 NonCon=     1 RMS=4.53D-07 Max=5.68D-06 NDo=     1
 LinEq1:  Iter=  7 NonCon=     1 RMS=1.76D-07 Max=2.11D-06 NDo=     1
 LinEq1:  Iter=  8 NonCon=     1 RMS=6.30D-08 Max=7.62D-07 NDo=     1
 LinEq1:  Iter=  9 NonCon=     1 RMS=1.97D-08 Max=2.86D-07 NDo=     1
 LinEq1:  Iter= 10 NonCon=     0 RMS=5.25D-09 Max=5.14D-08 NDo=     1
 Linear equations converged to 6.261D-09 6.261D-08 after    10 iterations.
 Angle between quadratic step and gradient=  63.98 degrees.
     ILin= 1 X=0.000D+00 Y= 2.152069462240D+00 DE= 0.00D+00 F= -6.23D-04
     ILin= 2 X=1.000D+00 Y= 2.151752144932D+00 DE=-3.17D-04 F= -1.69D-05 OKLS=T
     Reject lnstep IMin12=  1  2 Big=T Turn=F Min= 1.029D+00 FVal= 2.151751904376D+00 Lims=  0.00D+00  1.00D+00
     ILin= 3 X=1.800D+00 Y= 2.151926853541D+00 DE=-1.43D-04 F=  4.52D-04
     An  expanding polynomial of degree  3 produced  1.0331
     Minimum is close to point  2 DX=  3.31D-02 DF= -3.26D-07 DXR=  3.20D-02 DFR=  1.03D-03 which will be used.
 Iteration   9 EE=  2.15175214493195     Delta-E=       -0.000317317308 Grad=8.026D-04 Max rot=    0.0094 deg.
 QCNR:  CnvC1=6.26D-09 CnvC2=6.26D-08
 LinEq1:  Iter=  0 NonCon=     1 RMS=3.75D-05 Max=8.07D-04 NDo=     1
 LinEq1:  Iter=  1 NonCon=     1 RMS=1.66D-05 Max=3.90D-04 NDo=     1
 LinEq1:  Iter=  2 NonCon=     1 RMS=4.87D-06 Max=6.08D-05 NDo=     1
 LinEq1:  Iter=  3 NonCon=     1 RMS=1.50D-06 Max=2.57D-05 NDo=     1
 LinEq1:  Iter=  4 NonCon=     1 RMS=5.19D-07 Max=7.84D-06 NDo=     1
 LinEq1:  Iter=  5 NonCon=     1 RMS=1.79D-07 Max=2.30D-06 NDo=     1
 LinEq1:  Iter=  6 NonCon=     1 RMS=4.36D-08 Max=6.10D-07 NDo=     1
 LinEq1:  Iter=  7 NonCon=     1 RMS=1.43D-08 Max=3.14D-07 NDo=     1
 LinEq1:  Iter=  8 NonCon=     1 RMS=4.40D-09 Max=7.42D-08 NDo=     1
 LinEq1:  Iter=  9 NonCon=     0 RMS=1.41D-09 Max=1.50D-08 NDo=     1
 Linear equations converged to 6.261D-09 6.261D-08 after     9 iterations.
 Angle between quadratic step and gradient=  57.79 degrees.
     ILin= 1 X=0.000D+00 Y= 2.151752144932D+00 DE= 0.00D+00 F= -3.90D-06
     ILin= 2 X=1.000D+00 Y= 2.151750185979D+00 DE=-1.96D-06 F= -2.37D-08 OKLS=T
     Reject lnstep IMin12=  1  2 Big=T Turn=F Min= 1.006D+00 FVal= 2.151750185906D+00 Lims=  0.00D+00  1.00D+00
     ILin= 3 X=2.000D+00 Y= 2.151752081683D+00 DE=-6.32D-08 F=  3.81D-06
     An  expanding polynomial of degree  3 produced  1.0082
     Minimum is close to point  2 DX=  8.20D-03 DF= -1.30D-10 DXR=  8.14D-03 DFR=  6.62D-05 which will be used.
 Iteration  10 EE=  2.15175018597938     Delta-E=       -0.000001958953 Grad=1.018D-05 Max rot=    0.0001 deg.
 QCNR:  CnvC1=1.02D-10 CnvC2=1.02D-09
 LinEq1:  Iter=  0 NonCon=     1 RMS=4.07D-07 Max=7.33D-06 NDo=     1
 LinEq1:  Iter=  1 NonCon=     1 RMS=2.03D-07 Max=2.99D-06 NDo=     1
 LinEq1:  Iter=  2 NonCon=     1 RMS=7.00D-08 Max=1.36D-06 NDo=     1
 LinEq1:  Iter=  3 NonCon=     1 RMS=2.52D-08 Max=4.23D-07 NDo=     1
 LinEq1:  Iter=  4 NonCon=     1 RMS=7.52D-09 Max=1.12D-07 NDo=     1
 LinEq1:  Iter=  5 NonCon=     1 RMS=2.89D-09 Max=6.03D-08 NDo=     1
 LinEq1:  Iter=  6 NonCon=     1 RMS=7.70D-10 Max=9.47D-09 NDo=     1
 LinEq1:  Iter=  7 NonCon=     1 RMS=3.39D-10 Max=4.29D-09 NDo=     1
 LinEq1:  Iter=  8 NonCon=     1 RMS=8.85D-11 Max=1.08D-09 NDo=     1
 LinEq1:  Iter=  9 NonCon=     0 RMS=2.85D-11 Max=3.28D-10 NDo=     1
 Linear equations converged to 1.018D-10 1.018D-09 after     9 iterations.
 Angle between quadratic step and gradient=  65.14 degrees.
     ILin= 1 X=0.000D+00 Y= 2.151750185979D+00 DE= 0.00D+00 F= -1.05D-09
     ILin= 2 X=1.000D+00 Y= 2.151750185456D+00 DE=-5.24D-10
 Iteration  11 EE=  2.15175018545585     Delta-E=       -0.000000000524 Grad=7.860D-08 Max rot=    0.0000 deg.
 Rotation gradient small -- convergence achieved.
 SCF Done:  E(RPM6) =   2.15175018546     a.u. after   11 cycles
            Convg  =    0.7860D-07                    87 Fock formations.
              S**2 =  0.0000                  -V/T =  1.0098
 Leave Link  508 at Fri Jan  7 12:01:59 2022, MaxMem=   402653184 cpu:              10.3 elap:               0.3
 (Enter /work/01114/jfonner/frontera/gaussian/16rC.01/g16/l601.exe)
 Copying SCF densities to generalized density rwf, IOpCl= 0 IROHF=0.

 **********************************************************************

            Population analysis using the SCF Density.

 **********************************************************************

 Alpha  occ. eigenvalues --   -2.06653  -2.03948  -1.97848  -1.97622  -1.95884
 Alpha  occ. eigenvalues --   -1.92619  -1.88058  -1.87824  -1.87265  -1.80268
 Alpha  occ. eigenvalues --   -1.77213  -1.73974  -1.70425  -1.65200  -1.60107
 Alpha  occ. eigenvalues --   -1.57620  -1.53097  -1.51693  -1.48967  -1.44783
 Alpha  occ. eigenvalues --   -1.42484  -1.40759  -1.39280  -1.38874  -1.37580
 Alpha  occ. eigenvalues --   -1.36756  -1.36507  -1.35935  -1.35469  -1.33086
 Alpha  occ. eigenvalues --   -1.30909  -1.30317  -1.28317  -1.27579  -1.26246
 Alpha  occ. eigenvalues --   -1.25127  -1.22785  -1.22234  -1.21232  -1.18429
 Alpha  occ. eigenvalues --   -1.17839  -1.17761  -1.17610  -1.16038  -1.14276
 Alpha  occ. eigenvalues --   -1.13983  -1.12710  -1.11860  -1.11295
 Alpha virt. eigenvalues --   -0.95028  -0.94250  -0.89803  -0.88442  -0.85241
 Alpha virt. eigenvalues --   -0.82880  -0.82565  -0.80459  -0.78868  -0.78317
 Alpha virt. eigenvalues --   -0.77809  -0.76929  -0.76207  -0.75525  -0.75320
 Alpha virt. eigenvalues --   -0.74305  -0.73704  -0.72872  -0.72298  -0.71251
 Alpha virt. eigenvalues --   -0.70917  -0.70716  -0.70082  -0.68896  -0.68316
 Alpha virt. eigenvalues --   -0.68152  -0.66255  -0.66032  -0.65136  -0.64788
 Alpha virt. eigenvalues --   -0.64614  -0.64059  -0.63088  -0.61857  -0.61150
 Alpha virt. eigenvalues --   -0.60983  -0.60454  -0.59339  -0.57658  -0.54787
          Condensed to atoms (all electrons):
               1          2          3          4          5          6
     1  C    3.729572   0.000000   0.000000   0.000000   0.000000   0.000000
     2  O    0.000000   5.502705   0.000000   0.000000   0.000000   0.000000
     3  N    0.000000   0.000000   4.976518   0.000000   0.000000   0.000000
     4  C    0.000000   0.000000   0.000000   3.838868   0.000000   0.000000
     5  C    0.000000   0.000000   0.000000   0.000000   3.631732   0.000000
     6  O    0.000000   0.000000   0.000000   0.000000   0.000000   6.205820
     7  N    0.000000   0.000000   0.000000   0.000000   0.000000   0.000000
     8  C    0.000000   0.000000   0.000000   0.000000   0.000000   0.000000
     9  C    0.000000   0.000000   0.000000   0.000000   0.000000   0.000000
    10  O    0.000000   0.000000   0.000000   0.000000   0.000000   0.000000
    11  N    0.000000   0.000000   0.000000   0.000000   0.000000   0.000000
    12  C    0.000000   0.000000   0.000000   0.000000   0.000000   0.000000
    13  C    0.000000   0.000000   0.000000   0.000000   0.000000   0.000000
    14  O    0.000000   0.000000   0.000000   0.000000   0.000000   0.000000
    15  C    0.000000   0.000000   0.000000   0.000000   0.000000   0.000000
    16  C    0.000000   0.000000   0.000000   0.000000   0.000000   0.000000
    17  C    0.000000   0.000000   0.000000   0.000000   0.000000   0.000000
    18  C    0.000000   0.000000   0.000000   0.000000   0.000000   0.000000
    19  C    0.000000   0.000000   0.000000   0.000000   0.000000   0.000000
    20  O    0.000000   0.000000   0.000000   0.000000   0.000000   0.000000
    21  O    0.000000   0.000000   0.000000   0.000000   0.000000   0.000000
    22  C    0.000000   0.000000   0.000000   0.000000   0.000000   0.000000
    23  H    0.000000   0.000000   0.000000   0.000000   0.000000   0.000000
               7          8          9         10         11         12
     1  C    0.000000   0.000000   0.000000   0.000000   0.000000   0.000000
     2  O    0.000000   0.000000   0.000000   0.000000   0.000000   0.000000
     3  N    0.000000   0.000000   0.000000   0.000000   0.000000   0.000000
     4  C    0.000000   0.000000   0.000000   0.000000   0.000000   0.000000
     5  C    0.000000   0.000000   0.000000   0.000000   0.000000   0.000000
     6  O    0.000000   0.000000   0.000000   0.000000   0.000000   0.000000
     7  N    5.440924   0.000000   0.000000   0.000000   0.000000   0.000000
     8  C    0.000000   3.528697   0.000000   0.000000   0.000000   0.000000
     9  C    0.000000   0.000000   3.648158   0.000000   0.000000   0.000000
    10  O    0.000000   0.000000   0.000000   6.054934   0.000000   0.000000
    11  N    0.000000   0.000000   0.000000   0.000000   5.287096   0.000000
    12  C    0.000000   0.000000   0.000000   0.000000   0.000000   4.176256
    13  C    0.000000   0.000000   0.000000   0.000000   0.000000   0.000000
    14  O    0.000000   0.000000   0.000000   0.000000   0.000000   0.000000
    15  C    0.000000   0.000000   0.000000   0.000000   0.000000   0.000000
    16  C    0.000000   0.000000   0.000000   0.000000   0.000000   0.000000
    17  C    0.000000   0.000000   0.000000   0.000000   0.000000   0.000000
    18  C    0.000000   0.000000   0.000000   0.000000   0.000000   0.000000
    19  C    0.000000   0.000000   0.000000   0.000000   0.000000   0.000000
    20  O    0.000000   0.000000   0.000000   0.000000   0.000000   0.000000
    21  O    0.000000   0.000000   0.000000   0.000000   0.000000   0.000000
    22  C    0.000000   0.000000   0.000000   0.000000   0.000000   0.000000
    23  H    0.000000   0.000000   0.000000   0.000000   0.000000   0.000000
              13         14         15         16         17         18
     1  C    0.000000   0.000000   0.000000   0.000000   0.000000   0.000000
     2  O    0.000000   0.000000   0.000000   0.000000   0.000000   0.000000
     3  N    0.000000   0.000000   0.000000   0.000000   0.000000   0.000000
     4  C    0.000000   0.000000   0.000000   0.000000   0.000000   0.000000
     5  C    0.000000   0.000000   0.000000   0.000000   0.000000   0.000000
     6  O    0.000000   0.000000   0.000000   0.000000   0.000000   0.000000
     7  N    0.000000   0.000000   0.000000   0.000000   0.000000   0.000000
     8  C    0.000000   0.000000   0.000000   0.000000   0.000000   0.000000
     9  C    0.000000   0.000000   0.000000   0.000000   0.000000   0.000000
    10  O    0.000000   0.000000   0.000000   0.000000   0.000000   0.000000
    11  N    0.000000   0.000000   0.000000   0.000000   0.000000   0.000000
    12  C    0.000000   0.000000   0.000000   0.000000   0.000000   0.000000
    13  C    4.150523   0.000000   0.000000   0.000000   0.000000   0.000000
    14  O    0.000000   5.772717   0.000000   0.000000   0.000000   0.000000
    15  C    0.000000   0.000000   2.806317   0.000000   0.000000   0.000000
    16  C    0.000000   0.000000   0.000000   5.012107   0.000000   0.000000
    17  C    0.000000   0.000000   0.000000   0.000000   2.953383   0.000000
    18  C    0.000000   0.000000   0.000000   0.000000   0.000000   2.928772
    19  C    0.000000   0.000000   0.000000   0.000000   0.000000   0.000000
    20  O    0.000000   0.000000   0.000000   0.000000   0.000000   0.000000
    21  O    0.000000   0.000000   0.000000   0.000000   0.000000   0.000000
    22  C    0.000000   0.000000   0.000000   0.000000   0.000000   0.000000
    23  H    0.000000   0.000000   0.000000   0.000000   0.000000   0.000000
              19         20         21         22         23
     1  C    0.000000   0.000000   0.000000   0.000000   0.000000
     2  O    0.000000   0.000000   0.000000   0.000000   0.000000
     3  N    0.000000   0.000000   0.000000   0.000000   0.000000
     4  C    0.000000   0.000000   0.000000   0.000000   0.000000
     5  C    0.000000   0.000000   0.000000   0.000000   0.000000
     6  O    0.000000   0.000000   0.000000   0.000000   0.000000
     7  N    0.000000   0.000000   0.000000   0.000000   0.000000
     8  C    0.000000   0.000000   0.000000   0.000000   0.000000
     9  C    0.000000   0.000000   0.000000   0.000000   0.000000
    10  O    0.000000   0.000000   0.000000   0.000000   0.000000
    11  N    0.000000   0.000000   0.000000   0.000000   0.000000
    12  C    0.000000   0.000000   0.000000   0.000000   0.000000
    13  C    0.000000   0.000000   0.000000   0.000000   0.000000
    14  O    0.000000   0.000000   0.000000   0.000000   0.000000
    15  C    0.000000   0.000000   0.000000   0.000000   0.000000
    16  C    0.000000   0.000000   0.000000   0.000000   0.000000
    17  C    0.000000   0.000000   0.000000   0.000000   0.000000
    18  C    0.000000   0.000000   0.000000   0.000000   0.000000
    19  C    3.771227   0.000000   0.000000   0.000000   0.000000
    20  O    0.000000   5.815480   0.000000   0.000000   0.000000
    21  O    0.000000   0.000000   5.448307   0.000000   0.000000
    22  C    0.000000   0.000000   0.000000   2.717725   0.000000
    23  H    0.000000   0.000000   0.000000   0.000000   0.602160
 Mulliken charges:
               1
     1  C    0.270428
     2  O    0.497295
     3  N    0.023482
     4  C    0.161132
     5  C    0.368268
     6  O   -0.205820
     7  N   -0.440924
     8  C    0.471303
     9  C    0.351842
    10  O   -0.054934
    11  N   -0.287096
    12  C   -0.176256
    13  C   -0.150523
    14  O    0.227283
    15  C    1.193683
    16  C   -1.012107
    17  C    1.046617
    18  C    1.071228
    19  C    0.228773
    20  O    0.184520
    21  O    0.551693
    22  C    1.282275
    23  H    0.397840
 Sum of Mulliken charges =   6.00000
 Mulliken charges with hydrogens summed into heavy atoms:
               1
     1  C    0.668268
     2  O    0.497295
     3  N    0.023482
     4  C    0.161132
     5  C    0.368268
     6  O   -0.205820
     7  N   -0.440924
     8  C    0.471303
     9  C    0.351842
    10  O   -0.054934
    11  N   -0.287096
    12  C   -0.176256
    13  C   -0.150523
    14  O    0.227283
    15  C    1.193683
    16  C   -1.012107
    17  C    1.046617
    18  C    1.071228
    19  C    0.228773
    20  O    0.184520
    21  O    0.551693
    22  C    1.282275
 Charge=              6.0000 electrons
 Dipole moment (field-independent basis, Debye):
    X=            107.4938    Y=             10.4099    Z=            655.3750  Tot=            664.2136
 N-N= 8.084139838626D+02 E-N=-1.249294496682D+03  KE=-2.191430423639D+02
 Leave Link  601 at Fri Jan  7 12:01:59 2022, MaxMem=   402653184 cpu:               1.0 elap:               0.0
 (Enter /work/01114/jfonner/frontera/gaussian/16rC.01/g16/l9999.exe)

 Test job not archived.
 1\1\GINC-C208-012\SP\RPM6\ZDO\C13H1N3O6(6+)\SA748948\07-Jan-2022\0\\#p
  int=acc2e=12 pm6 charge nosymm int=acc2e=12 scf=(noincfock,novaracc,f
 ermi,maxcycle=128,ndamp=64,xqc)\\Atom number=23\\6,1\C,0,3.42400002,0.
 96498763,17.63099045\O,0,3.13600342,2.10999946,17.61199391\N,0,3.17300
 496,0.12899699,18.64699945\C,0,2.55900471,0.51600847,19.9030147\C,0,3.
 34998801,-0.12200514,21.0140061\O,0,3.36600152,-1.3390105,21.13999871\
 N,0,4.06699918,0.68799289,21.76798888\C,0,4.88800427,0.20499636,22.850
 99854\C,0,4.35000563,0.76901044,24.17399087\O,0,4.16101162,1.98101482,
 24.26899258\N,0,4.06500852,-0.11998297,25.15099103\C,0,3.72000682,0.31
 300568,26.51500903\C,0,1.13798326,-0.02100218,19.98301291\O,0,0.392999
 08,0.39401168,18.82399841\C,0,0.48599834,0.50100263,21.16700089\C,0,6.
 36201153,0.61399163,22.65200237\C,0,7.15199205,0.29701123,23.87399184\
 C,0,6.95300222,-0.12099895,21.45499922\C,0,4.94098706,0.13999153,27.42
 001552\O,0,5.7140007,-0.80899285,27.28700217\O,0,5.24999203,0.95500975
 ,28.29400598\C,0,2.49900221,-0.42200178,27.06199389\H,0,3.94674061,0.5
 5967503,16.78994112\\Version=ES64L-G16RevC.01\HF=2.1517502\RMSD=1.255e
 -09\Dipole=-1.3046465,-0.0835775,1.4252602\PG=C01 [X(C13H1N3O6)]\\@


 CHARLIE BROWN -- WHICH DO YOU THINK LASTS LONGER IN LIFE, THE GOOD THINGS 
                  OR THE BAD THINGS?
 LINUS --         GOOD THINGS LAST EIGHT SECONDS ..
                  BAD THINGS LAST THREE WEEKS
 CHARLIE BROWN -- WHAT ABOUT IN BETWEEN?
 SNOOPY --        IN BETWEEN YOU SHOULD TAKE A NAP ...
 Job cpu time:       0 days  0 hours  0 minutes 54.2 seconds.
 Elapsed time:       0 days  0 hours  0 minutes  1.4 seconds.
 File lengths (MBytes):  RWF=      6 Int=      0 D2E=      0 Chk=      2 Scr=      1
 Normal termination of Gaussian 16 at Fri Jan  7 12:01:59 2022.
