 Entering Gaussian System, Link 0=g16
 Input=NCCONCCOCCCNCCOCCCNCCOCCNCCNNCCONCCOCCCNCCOCOCNCCOCOCNCCOCCCNCCOCO_3.gjf
 Output=NCCONCCOCCCNCCOCCCNCCOCCNCCNNCCONCCOCCCNCCOCOCNCCOCOCNCCOCCCNCCOCO_3.log
 Initial command:
 /work/01114/jfonner/frontera/gaussian/16rC.01/g16/l1.exe "/scratch1/08249/sa748948/lsqc/26989325/Gau-41083.inp" -scrdir="/scratch1/08249/sa748948/lsqc/26989325/"
 Entering Link 1 = /work/01114/jfonner/frontera/gaussian/16rC.01/g16/l1.exe PID=     41093.
  
 Copyright (c) 1988-2019, Gaussian, Inc.  All Rights Reserved.
  
 This is part of the Gaussian(R) 16 program.  It is based on
 the Gaussian(R) 09 system (copyright 2009, Gaussian, Inc.),
 the Gaussian(R) 03 system (copyright 2003, Gaussian, Inc.),
 the Gaussian(R) 98 system (copyright 1998, Gaussian, Inc.),
 the Gaussian(R) 94 system (copyright 1995, Gaussian, Inc.),
 the Gaussian 92(TM) system (copyright 1992, Gaussian, Inc.),
 the Gaussian 90(TM) system (copyright 1990, Gaussian, Inc.),
 the Gaussian 88(TM) system (copyright 1988, Gaussian, Inc.),
 the Gaussian 86(TM) system (copyright 1986, Carnegie Mellon
 University), and the Gaussian 82(TM) system (copyright 1983,
 Carnegie Mellon University). Gaussian is a federally registered
 trademark of Gaussian, Inc.
  
 This software contains proprietary and confidential information,
 including trade secrets, belonging to Gaussian, Inc.
  
 This software is provided under written license and may be
 used, copied, transmitted, or stored only in accord with that
 written license.
  
 The following legend is applicable only to US Government
 contracts under FAR:
  
                    RESTRICTED RIGHTS LEGEND
  
 Use, reproduction and disclosure by the US Government is
 subject to restrictions as set forth in subparagraphs (a)
 and (c) of the Commercial Computer Software - Restricted
 Rights clause in FAR 52.227-19.
  
 Gaussian, Inc.
 340 Quinnipiac St., Bldg. 40, Wallingford CT 06492
  
  
 ---------------------------------------------------------------
 Warning -- This program may not be used in any manner that
 competes with the business of Gaussian, Inc. or will provide
 assistance to any competitor of Gaussian, Inc.  The licensee
 of this program is prohibited from giving any competitor of
 Gaussian, Inc. access to this program.  By using this program,
 the user acknowledges that Gaussian, Inc. is engaged in the
 business of creating and licensing software in the field of
 computational chemistry and represents and warrants to the
 licensee that it is not a competitor of Gaussian, Inc. and that
 it will not use this program in any manner prohibited above.
 ---------------------------------------------------------------
  

 Cite this work as:
 Gaussian 16, Revision C.01,
 M. J. Frisch, G. W. Trucks, H. B. Schlegel, G. E. Scuseria, 
 M. A. Robb, J. R. Cheeseman, G. Scalmani, V. Barone, 
 G. A. Petersson, H. Nakatsuji, X. Li, M. Caricato, A. V. Marenich, 
 J. Bloino, B. G. Janesko, R. Gomperts, B. Mennucci, H. P. Hratchian, 
 J. V. Ortiz, A. F. Izmaylov, J. L. Sonnenberg, D. Williams-Young, 
 F. Ding, F. Lipparini, F. Egidi, J. Goings, B. Peng, A. Petrone, 
 T. Henderson, D. Ranasinghe, V. G. Zakrzewski, J. Gao, N. Rega, 
 G. Zheng, W. Liang, M. Hada, M. Ehara, K. Toyota, R. Fukuda, 
 J. Hasegawa, M. Ishida, T. Nakajima, Y. Honda, O. Kitao, H. Nakai, 
 T. Vreven, K. Throssell, J. A. Montgomery, Jr., J. E. Peralta, 
 F. Ogliaro, M. J. Bearpark, J. J. Heyd, E. N. Brothers, K. N. Kudin, 
 V. N. Staroverov, T. A. Keith, R. Kobayashi, J. Normand, 
 K. Raghavachari, A. P. Rendell, J. C. Burant, S. S. Iyengar, 
 J. Tomasi, M. Cossi, J. M. Millam, M. Klene, C. Adamo, R. Cammi, 
 J. W. Ochterski, R. L. Martin, K. Morokuma, O. Farkas, 
 J. B. Foresman, and D. J. Fox, Gaussian, Inc., Wallingford CT, 2019.
 
 ******************************************
 Gaussian 16:  ES64L-G16RevC.01  3-Jul-2019
                 7-Jan-2022 
 ******************************************
 %chk=NCCONCCOCCCNCCOCCCNCCOCCNCCNNCCONCCOCCCNCCOCOCNCCOCOCNCCOCCCNCCOCO_3.chk
 %nproc=56
 Will use up to   56 processors via shared memory.
 %mem=3gb
 ---------------------------------
 #p int=acc2e=12 pm6 charge nosymm
 ---------------------------------
 1/18=10,28=-2,38=1,125=101,172=1/1;
 2/12=2,15=1,17=6,18=5,40=1/2;
 3/5=2,25=1,27=12,41=3900000/1,2,3;
 4/35=1/1;
 5/5=2,35=1,38=5,87=12/2;
 6/7=2,8=2,9=2,10=2,28=1,87=12/1;
 99/5=1,9=1/99;
 Leave Link    1 at Fri Jan  7 12:00:13 2022, MaxMem=   402653184 cpu:               2.5 elap:               0.5
 (Enter /work/01114/jfonner/frontera/gaussian/16rC.01/g16/l101.exe)
 --------------
 Atom number=23
 --------------
 Symbolic Z-matrix:
 Charge =  4 Multiplicity = 1
 c                    -1.63601   0.175     4.60001 
 o                    -1.74401   1.356     4.86199 
 n                    -1.095    -0.7       5.415 
 c                    -0.572    -0.31101   6.669 
 c                     0.84002  -0.85401   6.792 
 o                     1.027    -2.022     6.72 
 n                     1.81001   0.00199   7.02301 
 c                     3.191    -0.42899   7.101 
 c                    -1.411    -0.91299   7.79701 
 c                    -0.72701  -0.645     9.12301 
 c                     3.91099   0.25802   8.22899 
 o                     4.064     1.478     8.228 
 n                     4.36399  -0.52699   9.18901 
 c                     5.067     0.02      10.32599 
 c                     3.871    -0.103     5.74799 
 c                     5.247    -0.64299   5.58099 
 n                     5.86101  -0.689     4.35299 
 c                     6.10799  -1.197     6.44801 
 c                     7.059    -1.227     4.48201 
 n                     7.239    -1.52299   5.75101 
 h                    -1.93928  -0.22723   3.65601 
 h                    -2.40238  -0.51045   7.79129 
 h                     4.49403   0.59367   11.02421 
 
 ITRead=  0  0  0  0  0  0  0  0  0  0  0  0  0  0  0  0  0  0  0  0
 ITRead=  0  0  0
 MicOpt= -1 -1 -1 -1 -1 -1 -1 -1 -1 -1 -1 -1 -1 -1 -1 -1 -1 -1 -1 -1
 MicOpt= -1 -1 -1
 NAtoms=     23 NQM=       23 NQMF=       0 NMMI=      0 NMMIF=      0
                NMic=       0 NMicF=      0.
                    Isotopes and Nuclear Properties:
 (Nuclear quadrupole moments (NQMom) in fm**2, nuclear magnetic moments (NMagM)
  in nuclear magnetons)

  Atom         1           2           3           4           5           6           7           8           9          10
 IAtWgt=          12          16          14          12          12          16          14          12          12          12
 AtmWgt=  12.0000000  15.9949146  14.0030740  12.0000000  12.0000000  15.9949146  14.0030740  12.0000000  12.0000000  12.0000000
 NucSpn=           0           0           2           0           0           0           2           0           0           0
 AtZEff=  -0.0000000  -0.0000000  -0.0000000  -0.0000000  -0.0000000  -0.0000000  -0.0000000  -0.0000000  -0.0000000  -0.0000000
 NQMom=    0.0000000   0.0000000   2.0440000   0.0000000   0.0000000   0.0000000   2.0440000   0.0000000   0.0000000   0.0000000
 NMagM=    0.0000000   0.0000000   0.4037610   0.0000000   0.0000000   0.0000000   0.4037610   0.0000000   0.0000000   0.0000000
 AtZNuc=   6.0000000   8.0000000   7.0000000   6.0000000   6.0000000   8.0000000   7.0000000   6.0000000   6.0000000   6.0000000

  Atom        11          12          13          14          15          16          17          18          19          20
 IAtWgt=          12          16          14          12          12          12          14          12          12          14
 AtmWgt=  12.0000000  15.9949146  14.0030740  12.0000000  12.0000000  12.0000000  14.0030740  12.0000000  12.0000000  14.0030740
 NucSpn=           0           0           2           0           0           0           2           0           0           2
 AtZEff=  -0.0000000  -0.0000000  -0.0000000  -0.0000000  -0.0000000  -0.0000000  -0.0000000  -0.0000000  -0.0000000  -0.0000000
 NQMom=    0.0000000   0.0000000   2.0440000   0.0000000   0.0000000   0.0000000   2.0440000   0.0000000   0.0000000   2.0440000
 NMagM=    0.0000000   0.0000000   0.4037610   0.0000000   0.0000000   0.0000000   0.4037610   0.0000000   0.0000000   0.4037610
 AtZNuc=   6.0000000   8.0000000   7.0000000   6.0000000   6.0000000   6.0000000   7.0000000   6.0000000   6.0000000   7.0000000

  Atom        21          22          23
 IAtWgt=           1           1           1
 AtmWgt=   1.0078250   1.0078250   1.0078250
 NucSpn=           1           1           1
 AtZEff=  -0.0000000  -0.0000000  -0.0000000
 NQMom=    0.0000000   0.0000000   0.0000000
 NMagM=    2.7928460   2.7928460   2.7928460
 AtZNuc=   1.0000000   1.0000000   1.0000000
 Background charge distribution read from input stream:
 Point Charges:
 XYZ=   -6.8150   -0.6680    1.6070 Q=    0.1840 A=    0.0000 R=    0.0000 C=    0.0000
 XYZ=   -5.7140    0.0020    2.3730 Q=    0.1690 A=    0.0000 R=    0.0000 C=    0.0000
 XYZ=   -4.3570   -0.6730    2.5880 Q=    0.1957 A=    0.0000 R=    0.0000 C=    0.0000
 XYZ=   -4.2120   -1.8700    2.4920 Q=   -0.4612 A=    0.0000 R=    0.0000 C=    0.0000
 XYZ=   -3.3810    0.1250    2.9530 Q=   -0.3003 A=    0.0000 R=    0.0000 C=    0.0000
 XYZ=   -2.0620   -0.3900    3.2740 Q=    0.2639 A=    0.0000 R=    0.0000 C=    0.0000
 XYZ=   -0.9930   -0.0450    2.1970 Q=   -1.2213 A=    0.0000 R=    0.0000 C=    0.0000
 XYZ=    0.3900   -0.4880    2.6400 Q=    0.9359 A=    0.0000 R=    0.0000 C=    0.0000
 XYZ=   -1.3780   -0.6620    0.8970 Q=    0.8742 A=    0.0000 R=    0.0000 C=    0.0000
 XYZ=   -2.8000   -0.3490    7.7890 Q=    0.9737 A=    0.0000 R=    0.0000 C=    0.0000
 XYZ=    4.2710    0.8170   11.2960 Q=    0.1621 A=    0.0000 R=    0.0000 C=    0.0000
 XYZ=    4.3590    2.0330   11.3670 Q=   -0.2980 A=    0.0000 R=    0.0000 C=    0.0000
 XYZ=    3.4920    0.1040   12.0730 Q=   -0.4667 A=    0.0000 R=    0.0000 C=    0.0000
 XYZ=    2.5850    0.6770   13.0850 Q=    0.2746 A=    0.0000 R=    0.0000 C=    0.0000
 XYZ=    3.0060    0.0470   14.3610 Q=    0.2391 A=    0.0000 R=    0.0000 C=    0.0000
 XYZ=    2.9580   -1.1690   14.5150 Q=   -0.4626 A=    0.0000 R=    0.0000 C=    0.0000
 XYZ=    1.1270    0.3300   12.8270 Q=   -1.2217 A=    0.0000 R=    0.0000 C=    0.0000
 XYZ=    0.2480    0.6750   14.0380 Q=    0.9822 A=    0.0000 R=    0.0000 C=    0.0000
 XYZ=    0.6740    1.0470   11.5960 Q=    0.9278 A=    0.0000 R=    0.0000 C=    0.0000
 XYZ=    3.4810    0.8870   15.2620 Q=   -0.6284 A=    0.0000 R=    0.0000 C=    0.0000
 XYZ=    4.1630    0.3920   16.4420 Q=    0.1821 A=    0.0000 R=    0.0000 C=    0.0000
 XYZ=    3.4240    0.9650   17.6310 Q=    0.3166 A=    0.0000 R=    0.0000 C=    0.0000
 XYZ=    3.1360    2.1100   17.6120 Q=   -0.5694 A=    0.0000 R=    0.0000 C=    0.0000
 XYZ=    5.6880    0.7500   16.3890 Q=   -0.3175 A=    0.0000 R=    0.0000 C=    0.0000
 XYZ=    6.2640    0.1300   15.2360 Q=   -0.3082 A=    0.0000 R=    0.0000 C=    0.0000
 XYZ=    6.4200    0.2100   17.5690 Q=    0.9463 A=    0.0000 R=    0.0000 C=    0.0000
 XYZ=    3.1730    0.1290   18.6470 Q=   -0.5421 A=    0.0000 R=    0.0000 C=    0.0000
 XYZ=    2.5590    0.5160   19.9030 Q=    0.0236 A=    0.0000 R=    0.0000 C=    0.0000
 XYZ=    3.3500   -0.1220   21.0140 Q=    0.1847 A=    0.0000 R=    0.0000 C=    0.0000
 XYZ=    3.3660   -1.3390   21.1400 Q=   -0.4163 A=    0.0000 R=    0.0000 C=    0.0000
 XYZ=    1.1380   -0.0210   19.9830 Q=   -0.2907 A=    0.0000 R=    0.0000 C=    0.0000
 XYZ=    0.3930    0.3940   18.8240 Q=   -0.3415 A=    0.0000 R=    0.0000 C=    0.0000
 XYZ=    0.4860    0.5010   21.1670 Q=    0.7765 A=    0.0000 R=    0.0000 C=    0.0000
 XYZ=    4.0670    0.6880   21.7680 Q=   -0.6191 A=    0.0000 R=    0.0000 C=    0.0000
 XYZ=    4.8880    0.2050   22.8510 Q=    0.2833 A=    0.0000 R=    0.0000 C=    0.0000
 XYZ=    4.3500    0.7690   24.1740 Q=    0.1730 A=    0.0000 R=    0.0000 C=    0.0000
 XYZ=    4.1610    1.9810   24.2690 Q=   -0.2861 A=    0.0000 R=    0.0000 C=    0.0000
 XYZ=    6.3620    0.6140   22.6520 Q=   -1.1933 A=    0.0000 R=    0.0000 C=    0.0000
 XYZ=    7.1520    0.2970   23.8740 Q=    0.8585 A=    0.0000 R=    0.0000 C=    0.0000
 XYZ=    6.9530   -0.1210   21.4550 Q=    0.9590 A=    0.0000 R=    0.0000 C=    0.0000
 XYZ=    4.0650   -0.1200   25.1510 Q=   -0.4907 A=    0.0000 R=    0.0000 C=    0.0000
 XYZ=    3.7200    0.3130   26.5150 Q=   -0.3576 A=    0.0000 R=    0.0000 C=    0.0000
 XYZ=    4.9410    0.1400   27.4200 Q=    0.0549 A=    0.0000 R=    0.0000 C=    0.0000
 XYZ=    5.7140   -0.8090   27.2870 Q=   -0.0565 A=    0.0000 R=    0.0000 C=    0.0000
 XYZ=    2.4990   -0.4220   27.0620 Q=    1.1023 A=    0.0000 R=    0.0000 C=    0.0000
 XYZ=    5.2500    0.9550   28.2940 Q=    0.3115 A=    0.0000 R=    0.0000 C=    0.0000
 Pt Chg Charge=              1.5054 electrons
 Pt Chg Dipole moment (Debye):
    X=            -16.1277    Y=             -8.1241    Z=             79.6006  Tot=             81.6232
 Pt Chg Quadrupole moment (Debye-Ang):
   XX=            224.9524   YY=            -27.3774   ZZ=           2294.1536
   XY=            -45.2724   XZ=            147.2306   YZ=           -129.4726
 Pt Chg Traceless Quadrupole moment (Debye-Ang):
   XX=           -605.6238   YY=           -857.9536   ZZ=           1463.5774
   XY=            -45.2724   XZ=            147.2306   YZ=           -129.4726
 Pt Chg Octapole moment (Debye-Ang**2):
  XXX=           1317.6024  YYY=            -22.6620  ZZZ=          72255.4037  XYY=            -89.0676
  XXY=           -188.6479  XXZ=           4546.8096  XZZ=           9274.3132  YZZ=          -2948.4432
  YYZ=           -455.4653  XYZ=           -795.9514
 Pt Chg Hexadecapole moment (Debye-Ang**3):
 XXXX=          17384.4558 YYYY=           -129.7475 ZZZZ=        2198272.3726 XXXY=           -944.6035
 XXXZ=          39812.7832 YYYX=           -209.2366 YYYZ=           -597.0800 ZZZX=         309895.5404
 ZZZY=         -67863.7058 XXYY=           -553.7812 XXZZ=         110786.3662 YYZZ=          -8441.0310
 XXYZ=          -3553.4496 YYXZ=          -1927.0534 ZZXY=         -15268.6281
 Leave Link  101 at Fri Jan  7 12:00:15 2022, MaxMem=   402653184 cpu:               7.3 elap:               1.3
 (Enter /work/01114/jfonner/frontera/gaussian/16rC.01/g16/l202.exe)
                          Input orientation:                          
 ---------------------------------------------------------------------
 Center     Atomic      Atomic             Coordinates (Angstroms)
 Number     Number       Type             X           Y           Z
 ---------------------------------------------------------------------
      1          6           0       -1.636007    0.174996    4.600007
      2          8           0       -1.744008    1.356000    4.861991
      3          7           0       -1.095000   -0.700005    5.415005
      4          6           0       -0.571995   -0.311006    6.668998
      5          6           0        0.840016   -0.854009    6.792003
      6          8           0        1.026999   -2.022001    6.720002
      7          7           0        1.810007    0.001989    7.023006
      8          6           0        3.190996   -0.428993    7.100995
      9          6           0       -1.410999   -0.912989    7.797008
     10          6           0       -0.727006   -0.644998    9.123012
     11          6           0        3.910993    0.258017    8.228992
     12          8           0        4.063997    1.477998    8.227997
     13          7           0        4.363991   -0.526991    9.189008
     14          6           0        5.066996    0.019997   10.325992
     15          6           0        3.870996   -0.102998    5.747994
     16          6           0        5.246999   -0.642994    5.580995
     17          7           0        5.861006   -0.688995    4.352991
     18          6           0        6.107992   -1.197000    6.448012
     19          6           0        7.059004   -1.227002    4.482007
     20          7           0        7.238998   -1.522987    5.751014
     21          1           0       -1.939279   -0.227235    3.656007
     22          1           0       -2.402377   -0.510452    7.791290
     23          1           0        4.494033    0.593674   11.024209
 ---------------------------------------------------------------------
                    Distance matrix (angstroms):
                    1          2          3          4          5
     1  C    0.000000
     2  O    1.214525   0.000000
     3  N    1.312454   2.225801   0.000000
     4  C    2.376771   2.723564   1.413278   0.000000
     5  C    3.463291   3.909765   2.379943   1.517814   0.000000
     6  O    4.051268   4.747797   2.820208   2.342411   1.185054
     7  N    4.216143   4.374284   3.393749   2.428420   1.314145
     8  C    5.469890   5.705577   4.613651   3.789544   2.408987
     9  C    3.384547   3.724720   2.412294   1.529287   2.465884
    10  C    4.685749   4.816076   3.726629   2.481484   2.816531
    11  C    6.629150   6.672428   5.822053   4.780643   3.568254
    12  O    6.881145   6.714001   6.266728   5.208016   4.230176
    13  N    7.586282   7.718574   6.638796   5.546265   4.274456
    14  C    8.817096   8.833459   7.912421   6.729145   5.578560
    15  C    5.632249   5.868726   5.012825   4.542211   3.292538
    16  C    7.000515   7.306649   6.344427   5.929136   4.575212
    17  N    7.550675   7.891599   7.036620   6.847647   5.584474
    18  C    8.078800   8.407567   7.293642   6.742110   5.290325
    19  C    8.808106   9.182010   8.224110   7.990878   6.644623
    20  N    9.108988   9.474879   8.381273   7.957588   6.517527
    21  H    1.070000   1.999790   2.007583   3.309773   4.236956
    22  H    3.352827   3.535235   2.718804   2.156297   3.410238
    23  H    8.889491   8.801547   8.023345   6.741732   5.775742
                    6          7          8          9         10
     6  O    0.000000
     7  N    2.191222   0.000000
     8  C    2.713985   1.448778   0.000000
     9  C    2.886812   3.436735   4.679428   0.000000
    10  C    3.278281   3.356345   4.414289   1.515900   0.000000
    11  C    3.974035   2.435999   1.504246   5.466394   4.808923
    12  O    4.873131   2.951453   2.380941   5.989837   5.316189
    13  N    4.412092   3.390312   2.396939   5.952912   5.092792
    14  C    5.787443   4.638752   3.757869   7.016455   5.954816
    15  C    3.565907   2.425768   1.548962   5.723112   5.729409
    16  C    4.583383   3.782633   2.565803   7.022289   6.945115
    17  N    5.545022   4.900718   3.840323   8.049440   8.133692
    18  C    5.154716   4.498985   3.086274   7.644323   7.360538
    19  C    6.482725   5.959787   4.738924   9.101032   9.082929
    20  N    6.306892   5.780783   4.405178   8.909581   8.694737
    21  H    4.626884   5.044440   6.182910   4.230512   5.615361
    22  H    3.897828   4.312429   5.636397   1.070000   2.144401
    23  H    6.114596   4.854247   4.258563   6.895960   5.692811
                   11         12         13         14         15
    11  C    0.000000
    12  O    1.229538   0.000000
    13  N    1.320256   2.243551   0.000000
    14  C    2.406327   2.744697   1.444350   0.000000
    15  C    2.507445   2.947408   3.501912   4.733245   0.000000
    16  C    3.099778   3.592314   3.716304   4.794472   1.487571
    17  N    4.441033   4.789653   5.065013   6.067114   2.499914
    18  C    3.180530   3.808133   3.317154   4.195650   2.586700
    19  C    5.114211   5.506317   5.468909   6.298830   3.609640
    20  N    4.515304   5.022150   4.591021   5.294225   3.655108
    21  H    7.441327   7.736293   8.392566   9.676659   6.176661
    22  H    6.375011   6.779281   6.909242   7.905544   6.610317
    23  H    2.875037   2.964079   2.154244   1.070000   5.358355
                   16         17         18         19         20
    16  C    0.000000
    17  N    1.373723   0.000000
    18  C    1.341623   2.169835   0.000000
    19  C    2.198227   1.319581   2.184147   0.000000
    20  N    2.184343   2.132808   1.367936   1.315440   0.000000
    21  H    7.451243   7.844964   8.572882   9.091254   9.503094
    22  H    7.963412   8.951943   8.643039  10.049006   9.906769
    23  H    5.632485   6.929575   5.172326   7.259087   6.310442
                   21         22         23
    21  H    0.000000
    22  H    4.170760   0.000000
    23  H    9.815895   7.696190   0.000000
 Symmetry turned off by external request.
 Stoichiometry    C12H3N5O3(4+)
 Framework group  C1[X(C12H3N5O3)]
 Deg. of freedom    63
 Full point group                 C1      NOp   1
 Rotational constants (GHZ):           0.5450709           0.1937810           0.1601547
 Leave Link  202 at Fri Jan  7 12:00:15 2022, MaxMem=   402653184 cpu:               2.7 elap:               0.5
 (Enter /work/01114/jfonner/frontera/gaussian/16rC.01/g16/l301.exe)
 Standard basis: VSTO-6G (5D, 7F)
 Ernie: Thresh=  0.10000D-02 Tol=  0.10000D-05 Strict=F.
  NNHCO=     0 NNPyr=     0 NCTC=     0               EPep=         0.000000000
    EC=       565.260287986  ECS=         6.040870630   EG=         0.602539039
   EHC=         0.002074604  EAt=      -115.844846073  AtH=         4.702180797
 EPDDG=         0.000000000  ECC=       571.905772258 EAtT=       120.547026870
    83 basis functions,   498 primitive gaussians,    83 cartesian basis functions
    45 alpha electrons       45 beta electrons
       nuclear repulsion energy       692.4527991285 Hartrees.
 IExCor=    0 DFT=F Ex=HF Corr=None ExCW=0 ScaHFX=  1.000000
 ScaDFX=  1.000000  1.000000  1.000000  1.000000 ScalE2=  1.000000  1.000000
 IRadAn=      5 IRanWt=     -1 IRanGd=            0 ICorTp=0 IEmpDi=  4
 Integral buffers will be    131072 words long.
 Regular integral format.
 Two-electron integral symmetry is turned off.
 Background charge distribution read from rwf.
 PtFMM for NChg=        69 BoxLen=    40.00 Levels= 1 LMax=20 SMax=    51.8 ICnFMM=     1:
 Self energy of the charges =        -2.7273122388 a.u.
 MM   energy of the charges =         0.0000000000 a.u.
 Nuclei-charges interaction =        13.2206269193 a.u.
 Nuclear repulsion after external point charges =      702.9461138090 Hartrees.
 Leave Link  301 at Fri Jan  7 12:00:16 2022, MaxMem=   402653184 cpu:               5.0 elap:               0.8
 (Enter /work/01114/jfonner/frontera/gaussian/16rC.01/g16/l302.exe)
 Do NDO integrals.
 NPDir=0 NMtPBC=     1 NCelOv=     1 NCel=       1 NClECP=     1 NCelD=      1
         NCelK=      1 NCelE2=     1 NClLst=     1 CellRange=     0.0.
 One-electron integrals computed using PRISM.
 NBasis=    83 RedAO= F EigKep=  0.00D+00  NBF=    83
 NBsUse=    83 1.00D-04 EigRej=  0.00D+00 NBFU=    83
 Leave Link  302 at Fri Jan  7 12:00:19 2022, MaxMem=   402653184 cpu:              19.1 elap:               3.5
 (Enter /work/01114/jfonner/frontera/gaussian/16rC.01/g16/l303.exe)
 DipDrv:  MaxL=1.
 Leave Link  303 at Fri Jan  7 12:00:20 2022, MaxMem=   402653184 cpu:               3.0 elap:               0.8
 (Enter /work/01114/jfonner/frontera/gaussian/16rC.01/g16/l401.exe)
 Simple Huckel Guess.
 JPrj=0 DoOrth=F DoCkMO=F.
 Leave Link  401 at Fri Jan  7 12:00:23 2022, MaxMem=   402653184 cpu:              15.6 elap:               2.4
 (Enter /work/01114/jfonner/frontera/gaussian/16rC.01/g16/l502.exe)
 Keep J ints in memory in canonical form, NReq=880914.
 FoFCou: FMM=F IPFlag=           0 FMFlag=           0 FMFlg1=           0
         NFxFlg=           0 DoJE=F BraDBF=F KetDBF=F FulRan=T
         wScrn=  0.000000 ICntrl=       600 IOpCl=  2 I1Cent=           0 NGrid=           0
         NMat0=    1 NMatS0=    203 NMatT0=    0 NMatD0=    1 NMtDS0=    0 NMtDT0=    0
 Symmetry not used in FoFCou.
 Two-electron integral symmetry not used.
 Closed shell SCF:
 Using DIIS extrapolation, IDIIS=  1040.
 Overlap will be assumed to be unity.
 NGot=   402653184 LenX=   402553399 LenY=   402546069
 Requested convergence on RMS density matrix=1.00D-08 within 128 cycles.
 Requested convergence on MAX density matrix=1.00D-06.
 Requested convergence on             energy=1.00D-06.
 No special actions if energy rises.

 Cycle   1  Pass 1  IDiag  1:
 E=  3.13736929798904    
 DIIS: error= 4.92D-02 at cycle   1 NSaved=   1.
 NSaved= 1 IEnMin= 1 EnMin=  3.13736929798904     IErMin= 1 ErrMin= 4.92D-02
 ErrMax= 4.92D-02  0.00D+00 EMaxC= 1.00D-01 BMatC= 3.03D-01 BMatP= 3.03D-01
 IDIUse=3 WtCom= 5.08D-01 WtEn= 4.92D-01
 Coeff-Com:  0.100D+01
 Coeff-En:   0.100D+01
 Coeff:      0.100D+01
 GapD=    2.000 DampG=2.000 DampE=0.500 DampFc=1.0000 IDamp=-1.
 RMSDP=3.31D-02 MaxDP=8.13D-01              OVMax= 0.00D+00

 Cycle   2  Pass 1  IDiag  1:
 E=  7.19877791701049     Delta-E=        4.061408619021 Rises=F Damp=F
 DIIS: error= 1.23D-01 at cycle   2 NSaved=   2.
 NSaved= 2 IEnMin= 1 EnMin=  3.13736929798904     IErMin= 1 ErrMin= 4.92D-02
 ErrMax= 1.23D-01  0.00D+00 EMaxC= 1.00D-01 BMatC= 7.65D-01 BMatP= 3.03D-01
 IDIUse=2 WtCom= 0.00D+00 WtEn= 1.00D+00
 Coeff-En:   0.840D+00 0.160D+00
 Coeff:      0.840D+00 0.160D+00
 RMSDP=2.96D-02 MaxDP=7.86D-01 DE= 4.06D+00 OVMax= 0.00D+00

 Cycle   3  Pass 1  IDiag  1:
 E=  1.93415958652542     Delta-E=       -5.264618330485 Rises=F Damp=F
 DIIS: error= 2.24D-02 at cycle   3 NSaved=   3.
 NSaved= 3 IEnMin= 3 EnMin=  1.93415958652542     IErMin= 3 ErrMin= 2.24D-02
 ErrMax= 2.24D-02  0.00D+00 EMaxC= 1.00D-01 BMatC= 4.08D-02 BMatP= 3.03D-01
 IDIUse=3 WtCom= 7.76D-01 WtEn= 2.24D-01
 Coeff-Com: -0.165D+00 0.510D-01 0.111D+01
 Coeff-En:   0.000D+00 0.450D-01 0.955D+00
 Coeff:     -0.128D+00 0.497D-01 0.108D+01
 RMSDP=2.34D-02 MaxDP=7.34D-01 DE=-5.26D+00 OVMax= 0.00D+00

 Cycle   4  Pass 1  IDiag  1:
 E=  2.98596231505667     Delta-E=        1.051802728531 Rises=F Damp=F
 DIIS: error= 3.88D-02 at cycle   4 NSaved=   4.
 NSaved= 4 IEnMin= 3 EnMin=  1.93415958652542     IErMin= 3 ErrMin= 2.24D-02
 ErrMax= 3.88D-02  0.00D+00 EMaxC= 1.00D-01 BMatC= 1.92D-01 BMatP= 4.08D-02
 IDIUse=2 WtCom= 0.00D+00 WtEn= 1.00D+00
 Coeff-En:   0.000D+00 0.000D+00 0.817D+00 0.183D+00
 Coeff:      0.000D+00 0.000D+00 0.817D+00 0.183D+00
 RMSDP=1.69D-02 MaxDP=3.14D-01 DE= 1.05D+00 OVMax= 0.00D+00

 Cycle   5  Pass 1  IDiag  1:
 E=  1.81581890922064     Delta-E=       -1.170143405836 Rises=F Damp=F
 DIIS: error= 2.56D-02 at cycle   5 NSaved=   5.
 NSaved= 5 IEnMin= 5 EnMin=  1.81581890922064     IErMin= 3 ErrMin= 2.24D-02
 ErrMax= 2.56D-02  0.00D+00 EMaxC= 1.00D-01 BMatC= 4.33D-02 BMatP= 4.08D-02
 IDIUse=3 WtCom= 7.44D-01 WtEn= 2.56D-01
 Coeff-Com: -0.101D+00-0.513D-01 0.631D+00 0.107D+00 0.414D+00
 Coeff-En:   0.000D+00 0.000D+00 0.307D+00 0.000D+00 0.693D+00
 Coeff:     -0.751D-01-0.381D-01 0.548D+00 0.798D-01 0.485D+00
 RMSDP=7.05D-03 MaxDP=1.24D-01 DE=-1.17D+00 OVMax= 0.00D+00

 Cycle   6  Pass 1  IDiag  1:
 E=  1.66585914067957     Delta-E=       -0.149959768541 Rises=F Damp=F
 DIIS: error= 1.05D-02 at cycle   6 NSaved=   6.
 NSaved= 6 IEnMin= 6 EnMin=  1.66585914067957     IErMin= 6 ErrMin= 1.05D-02
 ErrMax= 1.05D-02  0.00D+00 EMaxC= 1.00D-01 BMatC= 9.71D-03 BMatP= 4.08D-02
 IDIUse=3 WtCom= 8.95D-01 WtEn= 1.05D-01
 Coeff-Com: -0.548D-01-0.126D-01 0.202D+00-0.261D-01-0.234D+00 0.113D+01
 Coeff-En:   0.000D+00 0.000D+00 0.000D+00 0.000D+00 0.000D+00 0.100D+01
 Coeff:     -0.491D-01-0.112D-01 0.181D+00-0.233D-01-0.210D+00 0.111D+01
 RMSDP=4.59D-03 MaxDP=1.37D-01 DE=-1.50D-01 OVMax= 0.00D+00

 Cycle   7  Pass 1  IDiag  3:
 E=  1.61331333436704     Delta-E=       -0.052545806313 Rises=F Damp=F
 DIIS: error= 3.09D-03 at cycle   7 NSaved=   7.
 NSaved= 7 IEnMin= 7 EnMin=  1.61331333436704     IErMin= 7 ErrMin= 3.09D-03
 ErrMax= 3.09D-03  0.00D+00 EMaxC= 1.00D-01 BMatC= 1.07D-03 BMatP= 9.71D-03
 IDIUse=3 WtCom= 9.69D-01 WtEn= 3.09D-02
 Coeff-Com:  0.105D-02 0.136D-02-0.488D-01-0.296D-02-0.388D-01-0.103D+00
 Coeff-Com:  0.119D+01
 Coeff-En:   0.000D+00 0.000D+00 0.000D+00 0.000D+00 0.000D+00 0.000D+00
 Coeff-En:   0.100D+01
 Coeff:      0.102D-02 0.132D-02-0.473D-01-0.287D-02-0.376D-01-0.999D-01
 Coeff:      0.119D+01
 Gap=     0.100 Goal=   None    Shift=    0.000
 RMSDP=2.08D-03 MaxDP=2.13D-02 DE=-5.25D-02 OVMax= 6.10D-02

 Cycle   8  Pass 1  IDiag  3:
 E=  1.60276168860378     Delta-E=       -0.010551645763 Rises=F Damp=F
 DIIS: error= 1.50D-03 at cycle   8 NSaved=   8.
 NSaved= 8 IEnMin= 8 EnMin=  1.60276168860378     IErMin= 8 ErrMin= 1.50D-03
 ErrMax= 1.50D-03  0.00D+00 EMaxC= 1.00D-01 BMatC= 3.32D-04 BMatP= 1.07D-03
 IDIUse=3 WtCom= 9.85D-01 WtEn= 1.50D-02
 Coeff-Com:  0.363D-02 0.235D-03-0.108D-01 0.258D-02-0.403D-02 0.636D-01
 Coeff-Com: -0.336D+00 0.128D+01
 Coeff-En:   0.000D+00 0.000D+00 0.000D+00 0.000D+00 0.000D+00 0.000D+00
 Coeff-En:   0.000D+00 0.100D+01
 Coeff:      0.358D-02 0.232D-03-0.107D-01 0.254D-02-0.397D-02 0.627D-01
 Coeff:     -0.331D+00 0.128D+01
 Gap=     0.099 Goal=   None    Shift=    0.000
 RMSDP=1.64D-03 MaxDP=1.72D-02 DE=-1.06D-02 OVMax= 5.05D-02

 Cycle   9  Pass 1  IDiag  3:
 E=  1.59746882116224     Delta-E=       -0.005292867442 Rises=F Damp=F
 DIIS: error= 1.18D-03 at cycle   9 NSaved=   9.
 NSaved= 9 IEnMin= 9 EnMin=  1.59746882116224     IErMin= 9 ErrMin= 1.18D-03
 ErrMax= 1.18D-03  0.00D+00 EMaxC= 1.00D-01 BMatC= 2.11D-04 BMatP= 3.32D-04
 IDIUse=3 WtCom= 9.88D-01 WtEn= 1.18D-02
 Coeff-Com: -0.199D-02-0.131D-02 0.286D-01 0.546D-02-0.316D-01 0.773D-01
 Coeff-Com: -0.422D+00-0.106D+00 0.145D+01
 Coeff-En:   0.000D+00 0.000D+00 0.000D+00 0.000D+00 0.000D+00 0.000D+00
 Coeff-En:   0.000D+00 0.000D+00 0.100D+01
 Coeff:     -0.197D-02-0.130D-02 0.282D-01 0.539D-02-0.312D-01 0.764D-01
 Coeff:     -0.417D+00-0.105D+00 0.145D+01
 Gap=     0.104 Goal=   None    Shift=    0.000
 RMSDP=1.85D-03 MaxDP=1.97D-02 DE=-5.29D-03 OVMax= 5.37D-02

 Cycle  10  Pass 1  IDiag  3:
 E=  1.59313312096378     Delta-E=       -0.004335700198 Rises=F Damp=F
 DIIS: error= 1.12D-03 at cycle  10 NSaved=  10.
 NSaved=10 IEnMin=10 EnMin=  1.59313312096378     IErMin=10 ErrMin= 1.12D-03
 ErrMax= 1.12D-03  0.00D+00 EMaxC= 1.00D-01 BMatC= 1.13D-04 BMatP= 2.11D-04
 IDIUse=3 WtCom= 9.89D-01 WtEn= 1.12D-02
 Coeff-Com: -0.131D-03-0.743D-03-0.103D-02 0.426D-05-0.186D-02-0.775D-01
 Coeff-Com:  0.311D+00 0.268D+00-0.174D+01 0.224D+01
 Coeff-En:   0.000D+00 0.000D+00 0.000D+00 0.000D+00 0.000D+00 0.000D+00
 Coeff-En:   0.000D+00 0.000D+00 0.000D+00 0.100D+01
 Coeff:     -0.129D-03-0.735D-03-0.101D-02 0.421D-05-0.184D-02-0.767D-01
 Coeff:      0.307D+00 0.265D+00-0.172D+01 0.223D+01
 Gap=     0.112 Goal=   None    Shift=    0.000
 RMSDP=1.65D-03 MaxDP=2.14D-02 DE=-4.34D-03 OVMax= 4.67D-02

 Cycle  11  Pass 1  IDiag  3:
 E=  1.59046239952795     Delta-E=       -0.002670721436 Rises=F Damp=F
 DIIS: error= 7.53D-04 at cycle  11 NSaved=  11.
 NSaved=11 IEnMin=11 EnMin=  1.59046239952795     IErMin=11 ErrMin= 7.53D-04
 ErrMax= 7.53D-04  0.00D+00 EMaxC= 1.00D-01 BMatC= 4.15D-05 BMatP= 1.13D-04
 IDIUse=3 WtCom= 9.92D-01 WtEn= 7.53D-03
 Coeff-Com:  0.989D-03-0.740D-03-0.448D-03 0.489D-03 0.267D-02 0.368D-01
 Coeff-Com: -0.159D+00 0.135D-01 0.554D+00-0.123D+01 0.178D+01
 Coeff-En:   0.000D+00 0.000D+00 0.000D+00 0.000D+00 0.000D+00 0.000D+00
 Coeff-En:   0.000D+00 0.000D+00 0.000D+00 0.000D+00 0.100D+01
 Coeff:      0.981D-03-0.734D-03-0.445D-03 0.486D-03 0.265D-02 0.365D-01
 Coeff:     -0.158D+00 0.134D-01 0.550D+00-0.122D+01 0.178D+01
 Gap=     0.115 Goal=   None    Shift=    0.000
 RMSDP=1.10D-03 MaxDP=1.53D-02 DE=-2.67D-03 OVMax= 3.19D-02

 Cycle  12  Pass 1  IDiag  3:
 E=  1.58920596297537     Delta-E=       -0.001256436553 Rises=F Damp=F
 DIIS: error= 7.73D-04 at cycle  12 NSaved=  12.
 NSaved=12 IEnMin=12 EnMin=  1.58920596297537     IErMin=11 ErrMin= 7.53D-04
 ErrMax= 7.73D-04  0.00D+00 EMaxC= 1.00D-01 BMatC= 2.46D-05 BMatP= 4.15D-05
 IDIUse=3 WtCom= 9.92D-01 WtEn= 7.53D-03
 Coeff-Com: -0.195D-03-0.463D-03-0.136D-02 0.128D-02 0.310D-02 0.114D-01
 Coeff-Com: -0.279D-01 0.106D-01 0.413D-01 0.157D+00-0.894D+00 0.170D+01
 Coeff-En:   0.000D+00 0.000D+00 0.000D+00 0.000D+00 0.000D+00 0.000D+00
 Coeff-En:   0.000D+00 0.000D+00 0.000D+00 0.000D+00 0.000D+00 0.100D+01
 Coeff:     -0.194D-03-0.459D-03-0.135D-02 0.127D-02 0.307D-02 0.114D-01
 Coeff:     -0.277D-01 0.105D-01 0.410D-01 0.156D+00-0.887D+00 0.169D+01
 Gap=     0.117 Goal=   None    Shift=    0.000
 RMSDP=7.77D-04 MaxDP=1.35D-02 DE=-1.26D-03 OVMax= 2.37D-02

 Cycle  13  Pass 1  IDiag  3:
 E=  1.58840455063887     Delta-E=       -0.000801412337 Rises=F Damp=F
 DIIS: error= 8.01D-04 at cycle  13 NSaved=  13.
 NSaved=13 IEnMin=13 EnMin=  1.58840455063887     IErMin=11 ErrMin= 7.53D-04
 ErrMax= 8.01D-04  0.00D+00 EMaxC= 1.00D-01 BMatC= 2.25D-05 BMatP= 2.46D-05
 IDIUse=3 WtCom= 9.92D-01 WtEn= 7.53D-03
 Coeff-Com:  0.204D-04-0.489D-03-0.132D-02 0.179D-02 0.248D-02 0.741D-02
 Coeff-Com: -0.185D-01 0.421D-01-0.792D-01 0.172D+00-0.400D+00 0.366D+00
 Coeff-Com:  0.908D+00
 Coeff-En:   0.000D+00 0.000D+00 0.000D+00 0.000D+00 0.000D+00 0.000D+00
 Coeff-En:   0.000D+00 0.000D+00 0.000D+00 0.000D+00 0.000D+00 0.000D+00
 Coeff-En:   0.100D+01
 Coeff:      0.203D-04-0.486D-03-0.131D-02 0.178D-02 0.246D-02 0.736D-02
 Coeff:     -0.184D-01 0.418D-01-0.786D-01 0.170D+00-0.397D+00 0.363D+00
 Coeff:      0.909D+00
 Gap=     0.119 Goal=   None    Shift=    0.000
 RMSDP=4.43D-04 MaxDP=8.58D-03 DE=-8.01D-04 OVMax= 1.45D-02

 Cycle  14  Pass 1  IDiag  3:
 E=  1.58794562343326     Delta-E=       -0.000458927206 Rises=F Damp=F
 DIIS: error= 8.09D-04 at cycle  14 NSaved=  14.
 NSaved=14 IEnMin=14 EnMin=  1.58794562343326     IErMin=11 ErrMin= 7.53D-04
 ErrMax= 8.09D-04  0.00D+00 EMaxC= 1.00D-01 BMatC= 2.25D-05 BMatP= 2.25D-05
 IDIUse=3 WtCom= 9.92D-01 WtEn= 7.53D-03
 Coeff-Com:  0.571D-04-0.517D-03-0.140D-02 0.182D-02 0.257D-02 0.754D-02
 Coeff-Com: -0.206D-01 0.473D-01-0.777D-01 0.156D+00-0.357D+00 0.432D+00
 Coeff-Com:  0.167D+00 0.644D+00
 Coeff-En:   0.000D+00 0.000D+00 0.000D+00 0.000D+00 0.000D+00 0.000D+00
 Coeff-En:   0.000D+00 0.000D+00 0.000D+00 0.000D+00 0.000D+00 0.000D+00
 Coeff-En:   0.000D+00 0.100D+01
 Coeff:      0.567D-04-0.513D-03-0.139D-02 0.181D-02 0.255D-02 0.748D-02
 Coeff:     -0.204D-01 0.469D-01-0.771D-01 0.155D+00-0.355D+00 0.428D+00
 Coeff:      0.165D+00 0.647D+00
 Gap=     0.119 Goal=   None    Shift=    0.000
 RMSDP=2.16D-04 MaxDP=4.46D-03 DE=-4.59D-04 OVMax= 7.16D-03

 Cycle  15  Pass 1  IDiag  3:
 E=  1.58771849187883     Delta-E=       -0.000227131554 Rises=F Damp=F
 DIIS: error= 8.19D-04 at cycle  15 NSaved=  15.
 NSaved=15 IEnMin=15 EnMin=  1.58771849187883     IErMin=11 ErrMin= 7.53D-04
 ErrMax= 8.19D-04  0.00D+00 EMaxC= 1.00D-01 BMatC= 2.26D-05 BMatP= 2.25D-05
 IDIUse=3 WtCom= 9.92D-01 WtEn= 7.53D-03
 Coeff-Com:  0.438D-04-0.521D-03-0.140D-02 0.182D-02 0.261D-02 0.743D-02
 Coeff-Com: -0.209D-01 0.502D-01-0.805D-01 0.155D+00-0.361D+00 0.462D+00
 Coeff-Com:  0.172D+00 0.219D+00 0.395D+00
 Coeff-En:   0.000D+00 0.000D+00 0.000D+00 0.000D+00 0.000D+00 0.000D+00
 Coeff-En:   0.000D+00 0.000D+00 0.000D+00 0.000D+00 0.000D+00 0.000D+00
 Coeff-En:   0.000D+00 0.000D+00 0.100D+01
 Coeff:      0.435D-04-0.517D-03-0.139D-02 0.180D-02 0.259D-02 0.737D-02
 Coeff:     -0.207D-01 0.498D-01-0.799D-01 0.154D+00-0.359D+00 0.459D+00
 Coeff:      0.170D+00 0.217D+00 0.400D+00
 Gap=     0.120 Goal=   None    Shift=    0.000
 RMSDP=7.54D-05 MaxDP=1.60D-03 DE=-2.27D-04 OVMax= 2.39D-03

 Cycle  16  Pass 1  IDiag  3:
 E=  1.58763990689545     Delta-E=       -0.000078584983 Rises=F Damp=F
 DIIS: error= 8.24D-04 at cycle  16 NSaved=  16.
 NSaved=16 IEnMin=16 EnMin=  1.58763990689545     IErMin=11 ErrMin= 7.53D-04
 ErrMax= 8.24D-04  0.00D+00 EMaxC= 1.00D-01 BMatC= 2.27D-05 BMatP= 2.25D-05
 IDIUse=3 WtCom= 9.92D-01 WtEn= 7.53D-03
 Coeff-Com:  0.472D-04-0.521D-03-0.138D-02 0.181D-02 0.266D-02 0.737D-02
 Coeff-Com: -0.210D-01 0.508D-01-0.814D-01 0.155D+00-0.362D+00 0.461D+00
 Coeff-Com:  0.192D+00 0.217D+00 0.187D+00 0.191D+00
 Coeff-En:   0.000D+00 0.000D+00 0.000D+00 0.000D+00 0.000D+00 0.000D+00
 Coeff-En:   0.000D+00 0.000D+00 0.000D+00 0.000D+00 0.000D+00 0.000D+00
 Coeff-En:   0.000D+00 0.000D+00 0.000D+00 0.100D+01
 Coeff:      0.468D-04-0.517D-03-0.137D-02 0.180D-02 0.264D-02 0.731D-02
 Coeff:     -0.209D-01 0.504D-01-0.808D-01 0.154D+00-0.359D+00 0.457D+00
 Coeff:      0.191D+00 0.215D+00 0.185D+00 0.197D+00
 Gap=     0.120 Goal=   None    Shift=    0.000
 RMSDP=1.29D-05 MaxDP=2.69D-04 DE=-7.86D-05 OVMax= 3.15D-04

 Cycle  17  Pass 1  IDiag  3:
 E=  1.58762822653455     Delta-E=       -0.000011680361 Rises=F Damp=F
 DIIS: error= 8.26D-04 at cycle  17 NSaved=  17.
 NSaved=17 IEnMin=17 EnMin=  1.58762822653455     IErMin=11 ErrMin= 7.53D-04
 ErrMax= 8.26D-04  0.00D+00 EMaxC= 1.00D-01 BMatC= 2.27D-05 BMatP= 2.25D-05
 IDIUse=3 WtCom= 9.92D-01 WtEn= 7.53D-03
 Coeff-Com:  0.644D-04-0.525D-03-0.145D-02 0.180D-02 0.284D-02 0.640D-02
 Coeff-Com: -0.195D-01 0.579D-01-0.989D-01 0.165D+00-0.360D+00 0.421D+00
 Coeff-Com:  0.271D+00 0.568D+00 0.256D+00-0.485D+01 0.458D+01
 Coeff-En:   0.000D+00 0.000D+00 0.000D+00 0.000D+00 0.000D+00 0.000D+00
 Coeff-En:   0.000D+00 0.000D+00 0.000D+00 0.000D+00 0.000D+00 0.000D+00
 Coeff-En:   0.000D+00 0.000D+00 0.000D+00 0.000D+00 0.100D+01
 Coeff:      0.639D-04-0.521D-03-0.144D-02 0.179D-02 0.282D-02 0.635D-02
 Coeff:     -0.194D-01 0.574D-01-0.982D-01 0.164D+00-0.357D+00 0.418D+00
 Coeff:      0.269D+00 0.564D+00 0.254D+00-0.482D+01 0.456D+01
 Gap=     0.119 Goal=   None    Shift=    0.000
 RMSDP=5.94D-05 MaxDP=1.10D-03 DE=-1.17D-05 OVMax= 2.09D-03

 Cycle  18  Pass 1  IDiag  3:
 E=  1.58768761172178     Delta-E=        0.000059385187 Rises=F Damp=F
 DIIS: error= 8.26D-04 at cycle  18 NSaved=  18.
 NSaved=18 IEnMin=17 EnMin=  1.58762822653455     IErMin=11 ErrMin= 7.53D-04
 ErrMax= 8.26D-04  0.00D+00 EMaxC= 1.00D-01 BMatC= 2.26D-05 BMatP= 2.25D-05
 IDIUse=3 WtCom= 9.92D-01 WtEn= 7.53D-03
 Large coefficients: NSaved= 18 BigCof=   11.28 CofMax=   10.00 Det=-1.39D-09
 Inversion failed.  Reducing to 17 matrices.
 Large coefficients: NSaved= 17 BigCof=   11.53 CofMax=   10.00 Det=-1.39D-09
 Inversion failed.  Reducing to 16 matrices.
 Large coefficients: NSaved= 16 BigCof=   11.55 CofMax=   10.00 Det=-1.39D-09
 Inversion failed.  Reducing to 15 matrices.
 Large coefficients: NSaved= 15 BigCof=   12.04 CofMax=   10.00 Det=-1.39D-09
 Inversion failed.  Reducing to 14 matrices.
 Large coefficients: NSaved= 14 BigCof=   12.06 CofMax=   10.00 Det=-1.39D-09
 Inversion failed.  Reducing to 13 matrices.
 Large coefficients: NSaved= 13 BigCof=   11.74 CofMax=   10.00 Det=-1.40D-09
 Inversion failed.  Reducing to 12 matrices.
 Large coefficients: NSaved= 12 BigCof=   10.39 CofMax=   10.00 Det=-1.41D-09
 Inversion failed.  Reducing to 11 matrices.
 Rare condition: small coef for last iteration:  0.000D+00
 Coeff-Com:  0.482D-01-0.205D+00 0.390D+00-0.372D+00 0.236D+00 0.146D+00
 Coeff-Com:  0.307D+00 0.122D+01 0.849D+00-0.857D+01 0.696D+01
 Coeff-En:   0.000D+00 0.000D+00 0.000D+00 0.000D+00 0.000D+00 0.000D+00
 Coeff-En:   0.000D+00 0.000D+00 0.000D+00 0.000D+00 0.100D+01
 Coeff:      0.482D-01-0.205D+00 0.390D+00-0.372D+00 0.236D+00 0.146D+00
 Coeff:      0.307D+00 0.122D+01 0.849D+00-0.857D+01 0.696D+01
 Gap=     0.119 Goal=   None    Shift=    0.000
 RMSDP=3.90D-04 MaxDP=6.88D-03 DE= 5.94D-05 OVMax= 1.31D-02

 Cycle  19  Pass 1  IDiag  3:
 E=  1.58807561667163     Delta-E=        0.000388004950 Rises=F Damp=F
 DIIS: error= 8.27D-04 at cycle  19 NSaved=  12.
 NSaved=12 IEnMin=10 EnMin=  1.58762822653455     IErMin= 4 ErrMin= 7.53D-04
 ErrMax= 8.27D-04  0.00D+00 EMaxC= 1.00D-01 BMatC= 2.12D-05 BMatP= 2.25D-05
 IDIUse=3 WtCom= 9.92D-01 WtEn= 7.53D-03
 Large coefficients: NSaved= 12 BigCof=   13.55 CofMax=   10.00 Det=-1.40D-09
 Inversion failed.  Reducing to 11 matrices.
 Large coefficients: NSaved= 11 BigCof=   14.45 CofMax=   10.00 Det=-1.41D-09
 Inversion failed.  Reducing to 10 matrices.
 Large coefficients: NSaved= 10 BigCof=   14.69 CofMax=   10.00 Det=-1.42D-09
 Inversion failed.  Reducing to  9 matrices.
 Large coefficients: NSaved=  9 BigCof=   14.28 CofMax=   10.00 Det=-1.42D-09
 Inversion failed.  Reducing to  8 matrices.
 Large coefficients: NSaved=  8 BigCof=   16.46 CofMax=   10.00 Det=-1.51D-09
 Inversion failed.  Reducing to  7 matrices.
 Large coefficients: NSaved=  7 BigCof=   16.73 CofMax=   10.00 Det=-1.51D-09
 Inversion failed.  Reducing to  6 matrices.
 Large coefficients: NSaved=  6 BigCof=   15.72 CofMax=   10.00 Det=-1.62D-09
 Inversion failed.  Reducing to  5 matrices.
 Large coefficients: NSaved=  5 BigCof=   17.42 CofMax=   10.00 Det=-2.22D-09
 Inversion failed.  Reducing to  4 matrices.
 Large coefficients: NSaved=  4 BigCof=   19.32 CofMax=   10.00 Det=-2.27D-09
 Inversion failed.  Reducing to  3 matrices.
 Rare condition: small coef for last iteration:  0.000D+00
 Coeff-Com: -0.143D+00 0.481D-01 0.109D+01
 Coeff-En:   0.000D+00 0.000D+00 0.100D+01
 Coeff:     -0.143D+00 0.481D-01 0.109D+01
 Gap=     0.120 Goal=   None    Shift=    0.000
 RMSDP=3.46D-04 MaxDP=6.52D-03 DE= 3.88D-04 OVMax= 1.19D-02

 Cycle  20  Pass 1  IDiag  3:
 E=  1.58771999081409     Delta-E=       -0.000355625858 Rises=F Damp=F
 DIIS: error= 8.27D-04 at cycle  20 NSaved=   4.
 NSaved= 4 IEnMin= 1 EnMin=  1.58762822653455     IErMin= 2 ErrMin= 8.26D-04
 ErrMax= 8.27D-04  0.00D+00 EMaxC= 1.00D-01 BMatC= 2.18D-05 BMatP= 2.12D-05
 IDIUse=3 WtCom= 9.92D-01 WtEn= 7.53D-03
 Coeff-Com: -0.649D+00-0.207D+00 0.869D+00 0.987D+00
 Coeff-En:   0.000D+00 0.000D+00 0.000D+00 0.100D+01
 Coeff:     -0.644D+00-0.206D+00 0.863D+00 0.988D+00
 Gap=     0.120 Goal=   None    Shift=    0.000
 RMSDP=8.16D-05 MaxDP=1.08D-03 DE=-3.56D-04 OVMax= 2.45D-03

 Cycle  21  Pass 1  IDiag  3:
 E=  1.58768166990183     Delta-E=       -0.000038320912 Rises=F Damp=F
 DIIS: error= 8.22D-04 at cycle  21 NSaved=   5.
 NSaved= 5 IEnMin= 1 EnMin=  1.58762822653455     IErMin= 5 ErrMin= 8.22D-04
 ErrMax= 8.22D-04  0.00D+00 EMaxC= 1.00D-01 BMatC= 2.16D-05 BMatP= 2.12D-05
 IDIUse=3 WtCom= 9.92D-01 WtEn= 7.53D-03
 Coeff-Com: -0.612D+00-0.247D+00 0.863D+00 0.955D+00 0.411D-01
 Coeff-En:   0.000D+00 0.000D+00 0.000D+00 0.000D+00 0.100D+01
 Coeff:     -0.607D+00-0.245D+00 0.857D+00 0.948D+00 0.483D-01
 Gap=     0.120 Goal=   None    Shift=    0.000
 RMSDP=1.37D-05 MaxDP=2.71D-04 DE=-3.83D-05 OVMax= 3.95D-04

 Cycle  22  Pass 1  IDiag  3:
 E=  1.58766948400853     Delta-E=       -0.000012185893 Rises=F Damp=F
 DIIS: error= 8.23D-04 at cycle  22 NSaved=   6.
 NSaved= 6 IEnMin= 1 EnMin=  1.58762822653455     IErMin= 5 ErrMin= 8.22D-04
 ErrMax= 8.23D-04  0.00D+00 EMaxC= 1.00D-01 BMatC= 2.16D-05 BMatP= 2.12D-05
 IDIUse=3 WtCom= 9.92D-01 WtEn= 7.53D-03
 Coeff-Com: -0.580D+00-0.276D+00 0.910D+00 0.886D+00 0.397D+01-0.391D+01
 Coeff-En:   0.000D+00 0.000D+00 0.000D+00 0.000D+00 0.000D+00 0.100D+01
 Coeff:     -0.576D+00-0.274D+00 0.903D+00 0.879D+00 0.394D+01-0.387D+01
 Gap=     0.120 Goal=   None    Shift=    0.000
 RMSDP=5.71D-05 MaxDP=1.11D-03 DE=-1.22D-05 OVMax= 1.88D-03

 Cycle  23  Pass 1  IDiag  3:
 E=  1.58772662303090     Delta-E=        0.000057139022 Rises=F Damp=F
 DIIS: error= 8.20D-04 at cycle  23 NSaved=   7.
 NSaved= 7 IEnMin= 1 EnMin=  1.58762822653455     IErMin= 7 ErrMin= 8.20D-04
 ErrMax= 8.20D-04  0.00D+00 EMaxC= 1.00D-01 BMatC= 2.15D-05 BMatP= 2.12D-05
 IDIUse=3 WtCom= 9.92D-01 WtEn= 7.53D-03
 Rare condition: small coef for last iteration:  0.000D+00
 Coeff-Com: -0.589D+00-0.250D+00 0.703D+00 0.102D+01 0.312D+01-0.470D+01
 Coeff-Com:  0.170D+01
 Coeff-En:   0.000D+00 0.000D+00 0.000D+00 0.000D+00 0.000D+00 0.000D+00
 Coeff-En:   0.100D+01
 Coeff:     -0.589D+00-0.250D+00 0.703D+00 0.102D+01 0.312D+01-0.470D+01
 Coeff:      0.170D+01
 Gap=     0.120 Goal=   None    Shift=    0.000
 RMSDP=2.45D-05 MaxDP=4.05D-04 DE= 5.71D-05 OVMax= 8.47D-04

 Cycle  24  Pass 1  IDiag  3:
 E=  1.58774382240631     Delta-E=        0.000017199375 Rises=F Damp=F
 DIIS: error= 8.16D-04 at cycle  24 NSaved=   8.
 NSaved= 8 IEnMin= 1 EnMin=  1.58762822653455     IErMin= 8 ErrMin= 8.16D-04
 ErrMax= 8.16D-04  0.00D+00 EMaxC= 1.00D-01 BMatC= 2.13D-05 BMatP= 2.12D-05
 IDIUse=3 WtCom= 9.92D-01 WtEn= 7.53D-03
 Large coefficients: NSaved=  8 BigCof=   18.31 CofMax=   10.00 Det=-1.93D-09
 Inversion failed.  Reducing to  7 matrices.
 Large coefficients: NSaved=  7 BigCof=   16.86 CofMax=   10.00 Det=-2.42D-09
 Inversion failed.  Reducing to  6 matrices.
 Large coefficients: NSaved=  6 BigCof=   17.41 CofMax=   10.00 Det=-2.71D-09
 Inversion failed.  Reducing to  5 matrices.
 Large coefficients: NSaved=  5 BigCof=   16.30 CofMax=   10.00 Det=-3.06D-09
 Inversion failed.  Reducing to  4 matrices.
 Large coefficients: NSaved=  4 BigCof=   15.30 CofMax=   10.00 Det=-3.36D-09
 Inversion failed.  Reducing to  3 matrices.
 Large coefficients: NSaved=  3 BigCof=   15.99 CofMax=   10.00 Det=-5.04D-09
 Inversion failed.  Reducing to  2 matrices.
 Large coefficients: NSaved=  2 BigCof=   13.87 CofMax=   10.00 Det=-5.12D-09
 Coeff-Com: -0.129D+02 0.139D+02
 Coeff-En:   0.000D+00 0.100D+01
 Coeff:     -0.128D+02 0.138D+02
 Gap=     0.121 Goal=   None    Shift=    0.000
 RMSDP=2.55D-04 MaxDP=3.17D-03 DE= 1.72D-05 OVMax= 7.34D-03

 Cycle  25  Pass 1  IDiag  3:
 E=  1.58757184778494     Delta-E=       -0.000171974621 Rises=F Damp=F
 DIIS: error= 8.12D-04 at cycle  25 NSaved=   3.
 NSaved= 3 IEnMin= 3 EnMin=  1.58757184778494     IErMin= 3 ErrMin= 8.12D-04
 ErrMax= 8.12D-04  0.00D+00 EMaxC= 1.00D-01 BMatC= 2.07D-05 BMatP= 2.13D-05
 IDIUse=3 WtCom= 9.92D-01 WtEn= 7.53D-03
 Large coefficients: NSaved=  3 BigCof=   10.13 CofMax=   10.00 Det=-3.15D-09
 Inversion failed.  Reducing to  2 matrices.
 Coeff-Com:  0.860D-01 0.914D+00
 Coeff-En:   0.000D+00 0.100D+01
 Coeff:      0.853D-01 0.915D+00
 Gap=     0.121 Goal=   None    Shift=    0.000
 RMSDP=3.77D-04 MaxDP=7.05D-03 DE=-1.72D-04 OVMax= 1.24D-02

 Cycle  26  Pass 1  IDiag  3:
 E=  1.58718504757030     Delta-E=       -0.000386800215 Rises=F Damp=F
 DIIS: error= 8.05D-04 at cycle  26 NSaved=   3.
 NSaved= 3 IEnMin= 3 EnMin=  1.58718504757030     IErMin= 3 ErrMin= 8.05D-04
 ErrMax= 8.05D-04  0.00D+00 EMaxC= 1.00D-01 BMatC= 2.22D-05 BMatP= 2.07D-05
 IDIUse=3 WtCom= 9.92D-01 WtEn= 7.53D-03
 Coeff-Com:  0.579D+00 0.129D+01-0.869D+00
 Coeff-En:   0.000D+00 0.000D+00 0.100D+01
 Coeff:      0.574D+00 0.128D+01-0.854D+00
 Gap=     0.120 Goal=   None    Shift=    0.000
 RMSDP=3.71D-04 MaxDP=6.89D-03 DE=-3.87D-04 OVMax= 1.33D-02

 Cycle  27  Pass 1  IDiag  3:
 E=  1.58756411873094     Delta-E=        0.000379071161 Rises=F Damp=F
 DIIS: error= 8.01D-04 at cycle  27 NSaved=   4.
 NSaved= 4 IEnMin= 3 EnMin=  1.58718504757030     IErMin= 4 ErrMin= 8.01D-04
 ErrMax= 8.01D-04  0.00D+00 EMaxC= 1.00D-01 BMatC= 2.16D-05 BMatP= 2.07D-05
 IDIUse=3 WtCom= 9.92D-01 WtEn= 7.53D-03
 Rare condition: small coef for last iteration:  0.000D+00
 Coeff-Com:  0.566D+00 0.129D+01-0.871D+00 0.152D-01
 Coeff-En:   0.000D+00 0.000D+00 0.000D+00 0.100D+01
 Coeff:      0.566D+00 0.129D+01-0.871D+00 0.152D-01
 Gap=     0.120 Goal=   None    Shift=    0.000
 RMSDP=3.46D-05 MaxDP=5.12D-04 DE= 3.79D-04 OVMax= 8.29D-04

 Cycle  28  Pass 1  IDiag  3:
 E=  1.58758151029872     Delta-E=        0.000017391568 Rises=F Damp=F
 DIIS: error= 7.98D-04 at cycle  28 NSaved=   5.
 NSaved= 5 IEnMin= 3 EnMin=  1.58718504757030     IErMin= 5 ErrMin= 7.98D-04
 ErrMax= 7.98D-04  0.00D+00 EMaxC= 1.00D-01 BMatC= 2.15D-05 BMatP= 2.07D-05
 IDIUse=3 WtCom= 9.92D-01 WtEn= 7.53D-03
 Rare condition: small coef for last iteration:  0.000D+00
 Coeff-Com: -0.279D+00 0.160D+01-0.158D+01-0.801D+00 0.206D+01
 Coeff-En:   0.000D+00 0.000D+00 0.000D+00 0.000D+00 0.100D+01
 Coeff:     -0.279D+00 0.160D+01-0.158D+01-0.801D+00 0.206D+01
 Gap=     0.120 Goal=   None    Shift=    0.000
 RMSDP=1.88D-04 MaxDP=3.08D-03 DE= 1.74D-05 OVMax= 5.60D-03

 Cycle  29  Pass 1  IDiag  3:
 E=  1.58774164115732     Delta-E=        0.000160130859 Rises=F Damp=F
 DIIS: error= 7.86D-04 at cycle  29 NSaved=   6.
 NSaved= 6 IEnMin= 3 EnMin=  1.58718504757030     IErMin= 6 ErrMin= 7.86D-04
 ErrMax= 7.86D-04  0.00D+00 EMaxC= 1.00D-01 BMatC= 2.06D-05 BMatP= 2.07D-05
 IDIUse=3 WtCom= 9.92D-01 WtEn= 7.53D-03
 Rare condition: small coef for last iteration:  0.000D+00
 Coeff-Com:  0.841D+00-0.234D+00 0.158D+00-0.123D+01-0.243D+01 0.390D+01
 Coeff-En:   0.000D+00 0.000D+00 0.000D+00 0.000D+00 0.000D+00 0.100D+01
 Coeff:      0.841D+00-0.234D+00 0.158D+00-0.123D+01-0.243D+01 0.390D+01
 Gap=     0.120 Goal=   None    Shift=    0.000
 RMSDP=2.28D-04 MaxDP=3.34D-03 DE= 1.60D-04 OVMax= 7.57D-03

 Cycle  30  Pass 1  IDiag  3:
 E=  1.58790179160394     Delta-E=        0.000160150447 Rises=F Damp=F
 DIIS: error= 7.69D-04 at cycle  30 NSaved=   7.
 NSaved= 7 IEnMin= 3 EnMin=  1.58718504757030     IErMin= 7 ErrMin= 7.69D-04
 ErrMax= 7.69D-04  0.00D+00 EMaxC= 1.00D-01 BMatC= 1.93D-05 BMatP= 2.06D-05
 IDIUse=3 WtCom= 9.92D-01 WtEn= 7.53D-03
 Rare condition: small coef for last iteration:  0.000D+00
 Coeff-Com:  0.223D+01-0.169D+00 0.273D+00-0.350D+00-0.455D+01-0.172D+01
 Coeff-Com:  0.528D+01
 Coeff-En:   0.000D+00 0.000D+00 0.000D+00 0.000D+00 0.000D+00 0.000D+00
 Coeff-En:   0.100D+01
 Coeff:      0.223D+01-0.169D+00 0.273D+00-0.350D+00-0.455D+01-0.172D+01
 Coeff:      0.528D+01
 Gap=     0.120 Goal=   None    Shift=    0.000
 RMSDP=1.17D-03 MaxDP=1.95D-02 DE= 1.60D-04 OVMax= 3.40D-02

 Cycle  31  Pass 1  IDiag  3:
 E=  1.58882639124590     Delta-E=        0.000924599642 Rises=F Damp=F
 DIIS: error= 6.28D-04 at cycle  31 NSaved=   8.
 NSaved= 8 IEnMin= 3 EnMin=  1.58718504757030     IErMin= 8 ErrMin= 6.28D-04
 ErrMax= 6.28D-04  0.00D+00 EMaxC= 1.00D-01 BMatC= 1.75D-05 BMatP= 1.93D-05
 IDIUse=3 WtCom= 9.94D-01 WtEn= 6.28D-03
 Rare condition: small coef for last iteration:  0.000D+00
 Coeff-Com:  0.102D+01 0.273D+01-0.144D+01-0.159D+01 0.424D+01-0.896D+01
 Coeff-Com:  0.356D+01 0.145D+01
 Coeff-En:   0.000D+00 0.000D+00 0.000D+00 0.000D+00 0.000D+00 0.000D+00
 Coeff-En:   0.000D+00 0.100D+01
 Coeff:      0.102D+01 0.273D+01-0.144D+01-0.159D+01 0.424D+01-0.896D+01
 Coeff:      0.356D+01 0.145D+01
 Gap=     0.120 Goal=   None    Shift=    0.000
 RMSDP=8.07D-04 MaxDP=1.48D-02 DE= 9.25D-04 OVMax= 2.21D-02

 Cycle  32  Pass 1  IDiag  3:
 E=  1.58936735950272     Delta-E=        0.000540968257 Rises=F Damp=F
 DIIS: error= 5.26D-04 at cycle  32 NSaved=   9.
 NSaved= 9 IEnMin= 3 EnMin=  1.58718504757030     IErMin= 9 ErrMin= 5.26D-04
 ErrMax= 5.26D-04  0.00D+00 EMaxC= 1.00D-01 BMatC= 1.30D-05 BMatP= 1.75D-05
 IDIUse=3 WtCom= 9.95D-01 WtEn= 5.26D-03
 Rare condition: small coef for last iteration:  0.000D+00
 Coeff-Com:  0.111D+01 0.168D+01-0.120D+01-0.419D+00-0.371D+00-0.288D+01
 Coeff-Com:  0.218D+01-0.167D+01 0.257D+01
 Coeff-En:   0.000D+00 0.000D+00 0.000D+00 0.000D+00 0.000D+00 0.000D+00
 Coeff-En:   0.000D+00 0.000D+00 0.100D+01
 Coeff:      0.111D+01 0.168D+01-0.120D+01-0.419D+00-0.371D+00-0.288D+01
 Coeff:      0.218D+01-0.167D+01 0.257D+01
 Gap=     0.120 Goal=   None    Shift=    0.000
 RMSDP=1.70D-03 MaxDP=3.30D-02 DE= 5.41D-04 OVMax= 4.97D-02

 Cycle  33  Pass 1  IDiag  3:
 E=  1.59026974962831     Delta-E=        0.000902390126 Rises=F Damp=F
 DIIS: error= 4.99D-04 at cycle  33 NSaved=  10.
 NSaved=10 IEnMin= 3 EnMin=  1.58718504757030     IErMin=10 ErrMin= 4.99D-04
 ErrMax= 4.99D-04  0.00D+00 EMaxC= 1.00D-01 BMatC= 1.57D-05 BMatP= 1.30D-05
 IDIUse=3 WtCom= 9.95D-01 WtEn= 5.26D-03
 Rare condition: small coef for last iteration:  0.000D+00
 Coeff-Com:  0.140D+01 0.157D+01-0.762D+00-0.519D+00-0.102D+01-0.372D+01
 Coeff-Com:  0.375D+01-0.173D+01 0.139D+01 0.640D+00
 Coeff-En:   0.000D+00 0.000D+00 0.000D+00 0.000D+00 0.000D+00 0.000D+00
 Coeff-En:   0.000D+00 0.000D+00 0.000D+00 0.100D+01
 Coeff:      0.140D+01 0.157D+01-0.762D+00-0.519D+00-0.102D+01-0.372D+01
 Coeff:      0.375D+01-0.173D+01 0.139D+01 0.640D+00
 Gap=     0.120 Goal=   None    Shift=    0.000
 RMSDP=2.26D-04 MaxDP=4.27D-03 DE= 9.02D-04 OVMax= 5.29D-03

 Cycle  34  Pass 1  IDiag  3:
 E=  1.59026286200162     Delta-E=       -0.000006887627 Rises=F Damp=F
 DIIS: error= 3.58D-04 at cycle  34 NSaved=  11.
 NSaved=11 IEnMin= 3 EnMin=  1.58718504757030     IErMin=11 ErrMin= 3.58D-04
 ErrMax= 3.58D-04  0.00D+00 EMaxC= 1.00D-01 BMatC= 6.57D-06 BMatP= 1.30D-05
 IDIUse=3 WtCom= 9.96D-01 WtEn= 3.58D-03
 Coeff-Com:  0.735D+00 0.105D+01-0.123D+01 0.811D+00-0.114D+01-0.282D+01
 Coeff-Com:  0.283D+01 0.184D+00-0.961D+00-0.450D+00 0.200D+01
 Coeff-En:   0.000D+00 0.000D+00 0.000D+00 0.000D+00 0.000D+00 0.000D+00
 Coeff-En:   0.000D+00 0.000D+00 0.000D+00 0.000D+00 0.100D+01
 Coeff:      0.733D+00 0.105D+01-0.123D+01 0.808D+00-0.113D+01-0.281D+01
 Coeff:      0.282D+01 0.183D+00-0.957D+00-0.449D+00 0.199D+01
 Gap=     0.121 Goal=   None    Shift=    0.000
 RMSDP=1.28D-03 MaxDP=2.68D-02 DE=-6.89D-06 OVMax= 4.09D-02

 Cycle  35  Pass 1  IDiag  3:
 E=  1.59053414368373     Delta-E=        0.000271281682 Rises=F Damp=F
 DIIS: error= 4.86D-04 at cycle  35 NSaved=  12.
 NSaved=12 IEnMin= 3 EnMin=  1.58718504757030     IErMin=11 ErrMin= 3.58D-04
 ErrMax= 4.86D-04  0.00D+00 EMaxC= 1.00D-01 BMatC= 1.26D-05 BMatP= 6.57D-06
 IDIUse=3 WtCom= 9.96D-01 WtEn= 3.58D-03
 Rare condition: small coef for last iteration:  0.000D+00
 Coeff-Com:  0.757D+00 0.116D+01-0.123D+01 0.756D+00-0.101D+01-0.316D+01
 Coeff-Com:  0.298D+01 0.142D+00-0.848D+00-0.512D+00 0.183D+01 0.136D+00
 Coeff-En:   0.000D+00 0.000D+00 0.000D+00 0.000D+00 0.000D+00 0.000D+00
 Coeff-En:   0.000D+00 0.000D+00 0.000D+00 0.000D+00 0.000D+00 0.100D+01
 Coeff:      0.757D+00 0.116D+01-0.123D+01 0.756D+00-0.101D+01-0.316D+01
 Coeff:      0.298D+01 0.142D+00-0.848D+00-0.512D+00 0.183D+01 0.136D+00
 Gap=     0.122 Goal=   None    Shift=    0.000
 RMSDP=1.16D-04 MaxDP=1.73D-03 DE= 2.71D-04 OVMax= 2.38D-03

 Cycle  36  Pass 1  IDiag  1:
 E=  1.59051994962272     Delta-E=       -0.000014194061 Rises=F Damp=F
 DIIS: error= 4.40D-04 at cycle  36 NSaved=  13.
 NSaved=13 IEnMin= 3 EnMin=  1.58718504757030     IErMin=11 ErrMin= 3.58D-04
 ErrMax= 4.40D-04  0.00D+00 EMaxC= 1.00D-01 BMatC= 1.03D-05 BMatP= 6.57D-06
 IDIUse=3 WtCom= 9.96D-01 WtEn= 3.58D-03
 Coeff-Com:  0.375D+00 0.113D+01-0.115D+01 0.591D+00-0.547D+00-0.230D+01
 Coeff-Com:  0.201D+01 0.385D+00-0.121D+01-0.628D+00 0.252D+01 0.416D+00
 Coeff-Com: -0.593D+00
 Coeff-En:   0.000D+00 0.000D+00 0.000D+00 0.000D+00 0.000D+00 0.000D+00
 Coeff-En:   0.000D+00 0.000D+00 0.000D+00 0.000D+00 0.000D+00 0.000D+00
 Coeff-En:   0.100D+01
 Coeff:      0.374D+00 0.112D+01-0.115D+01 0.589D+00-0.545D+00-0.229D+01
 Coeff:      0.200D+01 0.384D+00-0.120D+01-0.626D+00 0.251D+01 0.414D+00
 Coeff:     -0.587D+00
 RMSDP=1.11D-04 MaxDP=2.47D-03 DE=-1.42D-05 OVMax= 2.38D-03

 Cycle  37  Pass 1  IDiag  3:
 E=  1.59051413141367     Delta-E=       -0.000005818209 Rises=F Damp=F
 DIIS: error= 4.34D-04 at cycle  37 NSaved=  14.
 NSaved=14 IEnMin= 3 EnMin=  1.58718504757030     IErMin=11 ErrMin= 3.58D-04
 ErrMax= 4.34D-04  0.00D+00 EMaxC= 1.00D-01 BMatC= 1.01D-05 BMatP= 6.57D-06
 IDIUse=3 WtCom= 9.96D-01 WtEn= 3.58D-03
 Coeff-Com:  0.143D+00 0.144D+01-0.112D+01 0.598D+00-0.418D+00-0.225D+01
 Coeff-Com:  0.167D+01 0.456D+00-0.128D+01-0.633D+00 0.268D+01 0.498D+00
 Coeff-Com:  0.887D+00-0.168D+01
 Coeff-En:   0.000D+00 0.000D+00 0.000D+00 0.000D+00 0.000D+00 0.000D+00
 Coeff-En:   0.000D+00 0.000D+00 0.000D+00 0.000D+00 0.000D+00 0.000D+00
 Coeff-En:   0.000D+00 0.100D+01
 Coeff:      0.143D+00 0.144D+01-0.112D+01 0.596D+00-0.417D+00-0.224D+01
 Coeff:      0.166D+01 0.454D+00-0.127D+01-0.630D+00 0.268D+01 0.497D+00
 Coeff:      0.884D+00-0.167D+01
 Gap=     0.112 Goal=   None    Shift=    0.000
 RMSDP=5.55D-05 MaxDP=8.76D-04 DE=-5.82D-06 OVMax= 1.55D-03

 Cycle  38  Pass 1  IDiag  3:
 E=  1.59050511229896     Delta-E=       -0.000009019115 Rises=F Damp=F
 DIIS: error= 3.94D-04 at cycle  38 NSaved=  15.
 NSaved=15 IEnMin= 3 EnMin=  1.58718504757030     IErMin=11 ErrMin= 3.58D-04
 ErrMax= 3.94D-04  0.00D+00 EMaxC= 1.00D-01 BMatC= 8.32D-06 BMatP= 6.57D-06
 IDIUse=3 WtCom= 9.96D-01 WtEn= 3.58D-03
 Coeff-Com:  0.487D+00 0.401D+00-0.889D-01 0.280D+00-0.160D+01 0.576D+00
 Coeff-Com: -0.606D-01 0.523D-01-0.216D+00-0.405D-01 0.180D+00 0.799D-02
 Coeff-Com: -0.378D+01-0.407D+01 0.888D+01
 Coeff-En:   0.000D+00 0.000D+00 0.000D+00 0.000D+00 0.000D+00 0.000D+00
 Coeff-En:   0.000D+00 0.000D+00 0.000D+00 0.000D+00 0.000D+00 0.000D+00
 Coeff-En:   0.000D+00 0.000D+00 0.100D+01
 Coeff:      0.486D+00 0.399D+00-0.886D-01 0.279D+00-0.159D+01 0.574D+00
 Coeff:     -0.604D-01 0.521D-01-0.215D+00-0.403D-01 0.179D+00 0.796D-02
 Coeff:     -0.377D+01-0.406D+01 0.885D+01
 Gap=     0.110 Goal=   None    Shift=    0.000
 RMSDP=3.09D-04 MaxDP=6.41D-03 DE=-9.02D-06 OVMax= 8.19D-03

 Cycle  39  Pass 1  IDiag  3:
 E=  1.59047070761164     Delta-E=       -0.000034404687 Rises=F Damp=F
 DIIS: error= 1.63D-04 at cycle  39 NSaved=  16.
 NSaved=16 IEnMin= 3 EnMin=  1.58718504757030     IErMin=16 ErrMin= 1.63D-04
 ErrMax= 1.63D-04  0.00D+00 EMaxC= 1.00D-01 BMatC= 1.90D-06 BMatP= 6.57D-06
 IDIUse=3 WtCom= 9.98D-01 WtEn= 1.63D-03
 Coeff-Com: -0.179D-01-0.625D+00 0.248D+00 0.985D-01 0.178D-02 0.263D+00
 Coeff-Com: -0.277D-01 0.581D-01-0.882D-01-0.902D-01 0.386D+00-0.298D-02
 Coeff-Com: -0.548D+00 0.387D+00-0.645D+00 0.160D+01
 Coeff-En:   0.000D+00 0.000D+00 0.000D+00 0.000D+00 0.000D+00 0.000D+00
 Coeff-En:   0.000D+00 0.000D+00 0.000D+00 0.000D+00 0.000D+00 0.000D+00
 Coeff-En:   0.000D+00 0.000D+00 0.000D+00 0.100D+01
 Coeff:     -0.179D-01-0.624D+00 0.248D+00 0.983D-01 0.178D-02 0.263D+00
 Coeff:     -0.277D-01 0.580D-01-0.881D-01-0.901D-01 0.385D+00-0.298D-02
 Coeff:     -0.547D+00 0.386D+00-0.644D+00 0.160D+01
 Gap=     0.109 Goal=   None    Shift=    0.000
 RMSDP=1.11D-04 MaxDP=1.64D-03 DE=-3.44D-05 OVMax= 4.08D-03

 Cycle  40  Pass 1  IDiag  3:
 E=  1.59045572374635     Delta-E=       -0.000014983865 Rises=F Damp=F
 DIIS: error= 5.33D-05 at cycle  40 NSaved=  17.
 NSaved=17 IEnMin= 3 EnMin=  1.58718504757030     IErMin=17 ErrMin= 5.33D-05
 ErrMax= 5.33D-05  0.00D+00 EMaxC= 1.00D-01 BMatC= 3.88D-07 BMatP= 1.90D-06
 IDIUse=1 WtCom= 1.00D+00 WtEn= 0.00D+00
 Coeff-Com: -0.713D-02 0.263D+00-0.151D+00 0.672D-01-0.385D-01-0.334D+00
 Coeff-Com:  0.275D+00-0.151D-01-0.836D-01-0.962D-02 0.489D-01 0.180D-01
 Coeff-Com:  0.558D+00 0.179D+01-0.253D+01-0.438D+00 0.159D+01
 Coeff:     -0.713D-02 0.263D+00-0.151D+00 0.672D-01-0.385D-01-0.334D+00
 Coeff:      0.275D+00-0.151D-01-0.836D-01-0.962D-02 0.489D-01 0.180D-01
 Coeff:      0.558D+00 0.179D+01-0.253D+01-0.438D+00 0.159D+01
 Gap=     0.109 Goal=   None    Shift=    0.000
 RMSDP=8.60D-05 MaxDP=1.04D-03 DE=-1.50D-05 OVMax= 3.07D-03

 Cycle  41  Pass 1  IDiag  3:
 E=  1.59044760116751     Delta-E=       -0.000008122579 Rises=F Damp=F
 DIIS: error= 5.29D-05 at cycle  41 NSaved=  18.
 NSaved=18 IEnMin= 3 EnMin=  1.58718504757030     IErMin=18 ErrMin= 5.29D-05
 ErrMax= 5.29D-05  0.00D+00 EMaxC= 1.00D-01 BMatC= 1.97D-07 BMatP= 3.88D-07
 IDIUse=1 WtCom= 1.00D+00 WtEn= 0.00D+00
 Coeff-Com: -0.214D-01-0.329D-01 0.322D-01-0.153D-01 0.321D-01 0.124D+00
 Coeff-Com: -0.142D+00 0.180D-01 0.189D-01 0.188D-02-0.311D-01 0.940D-02
 Coeff-Com:  0.895D-01-0.371D+00 0.459D+00-0.262D+00-0.261D+00 0.135D+01
 Coeff:     -0.214D-01-0.329D-01 0.322D-01-0.153D-01 0.321D-01 0.124D+00
 Coeff:     -0.142D+00 0.180D-01 0.189D-01 0.188D-02-0.311D-01 0.940D-02
 Coeff:      0.895D-01-0.371D+00 0.459D+00-0.262D+00-0.261D+00 0.135D+01
 Gap=     0.109 Goal=   None    Shift=    0.000
 RMSDP=5.75D-05 MaxDP=7.88D-04 DE=-8.12D-06 OVMax= 2.30D-03

 Cycle  42  Pass 1  IDiag  3:
 E=  1.59044316091320     Delta-E=       -0.000004440254 Rises=F Damp=F
 DIIS: error= 5.22D-05 at cycle  42 NSaved=  19.
 NSaved=19 IEnMin= 3 EnMin=  1.58718504757030     IErMin=19 ErrMin= 5.22D-05
 ErrMax= 5.22D-05  0.00D+00 EMaxC= 1.00D-01 BMatC= 1.61D-07 BMatP= 1.97D-07
 IDIUse=1 WtCom= 1.00D+00 WtEn= 0.00D+00
 Coeff-Com: -0.973D-02 0.225D-01-0.535D-02-0.759D-02-0.667D-02 0.616D-01
 Coeff-Com: -0.572D-01-0.150D-01 0.343D-01 0.777D-02-0.602D-01-0.648D-04
 Coeff-Com:  0.395D-01-0.528D-01 0.759D-01 0.109D-01-0.147D+00-0.307D+00
 Coeff-Com:  0.142D+01
 Coeff:     -0.973D-02 0.225D-01-0.535D-02-0.759D-02-0.667D-02 0.616D-01
 Coeff:     -0.572D-01-0.150D-01 0.343D-01 0.777D-02-0.602D-01-0.648D-04
 Coeff:      0.395D-01-0.528D-01 0.759D-01 0.109D-01-0.147D+00-0.307D+00
 Coeff:      0.142D+01
 Gap=     0.109 Goal=   None    Shift=    0.000
 RMSDP=4.99D-05 MaxDP=8.43D-04 DE=-4.44D-06 OVMax= 2.41D-03

 Cycle  43  Pass 1  IDiag  3:
 E=  1.59043914403003     Delta-E=       -0.000004016883 Rises=F Damp=F
 DIIS: error= 5.18D-05 at cycle  43 NSaved=  20.
 NSaved=20 IEnMin= 3 EnMin=  1.58718504757030     IErMin=20 ErrMin= 5.18D-05
 ErrMax= 5.18D-05  0.00D+00 EMaxC= 1.00D-01 BMatC= 1.42D-07 BMatP= 1.61D-07
 IDIUse=1 WtCom= 1.00D+00 WtEn= 0.00D+00
 Coeff-Com: -0.118D-01 0.261D-01-0.984D-02-0.103D-02 0.288D-02 0.431D-01
 Coeff-Com: -0.551D-01-0.261D-02 0.167D-01-0.156D-02-0.159D-01 0.299D-02
 Coeff-Com:  0.589D-01-0.866D-01 0.417D-01-0.223D-01 0.210D-01-0.202D+00
 Coeff-Com:  0.205D-01 0.117D+01
 Coeff:     -0.118D-01 0.261D-01-0.984D-02-0.103D-02 0.288D-02 0.431D-01
 Coeff:     -0.551D-01-0.261D-02 0.167D-01-0.156D-02-0.159D-01 0.299D-02
 Coeff:      0.589D-01-0.866D-01 0.417D-01-0.223D-01 0.210D-01-0.202D+00
 Coeff:      0.205D-01 0.117D+01
 Gap=     0.109 Goal=   None    Shift=    0.000
 RMSDP=3.95D-05 MaxDP=7.20D-04 DE=-4.02D-06 OVMax= 2.04D-03

 Cycle  44  Pass 1  IDiag  3:
 E=  1.59043592044907     Delta-E=       -0.000003223581 Rises=F Damp=F
 DIIS: error= 5.18D-05 at cycle  44 NSaved=  20.
 NSaved=20 IEnMin= 3 EnMin=  1.58718504757030     IErMin=20 ErrMin= 5.18D-05
 ErrMax= 5.18D-05  0.00D+00 EMaxC= 1.00D-01 BMatC= 1.34D-07 BMatP= 1.42D-07
 IDIUse=1 WtCom= 1.00D+00 WtEn= 0.00D+00
 Coeff-Com: -0.197D-01 0.185D-01-0.416D-02 0.668D-02 0.458D-02 0.534D-01
 Coeff-Com: -0.693D-01 0.536D-02 0.830D-02-0.320D-02 0.297D-02 0.655D-01
 Coeff-Com: -0.485D-01-0.221D-01-0.185D-01 0.615D-01-0.117D+00-0.203D+00
 Coeff-Com:  0.744D-02 0.127D+01
 Coeff:     -0.197D-01 0.185D-01-0.416D-02 0.668D-02 0.458D-02 0.534D-01
 Coeff:     -0.693D-01 0.536D-02 0.830D-02-0.320D-02 0.297D-02 0.655D-01
 Coeff:     -0.485D-01-0.221D-01-0.185D-01 0.615D-01-0.117D+00-0.203D+00
 Coeff:      0.744D-02 0.127D+01
 Gap=     0.109 Goal=   None    Shift=    0.000
 RMSDP=4.76D-05 MaxDP=8.79D-04 DE=-3.22D-06 OVMax= 2.47D-03

 Cycle  45  Pass 1  IDiag  3:
 E=  1.59043214312646     Delta-E=       -0.000003777323 Rises=F Damp=F
 DIIS: error= 5.07D-05 at cycle  45 NSaved=  20.
 NSaved=20 IEnMin= 3 EnMin=  1.58718504757030     IErMin=20 ErrMin= 5.07D-05
 ErrMax= 5.07D-05  0.00D+00 EMaxC= 1.00D-01 BMatC= 1.31D-07 BMatP= 1.34D-07
 IDIUse=1 WtCom= 1.00D+00 WtEn= 0.00D+00
 Coeff-Com: -0.203D-01 0.960D-02-0.541D-02 0.734D-02 0.513D-02 0.701D-01
 Coeff-Com: -0.750D-01 0.208D-02 0.103D-01-0.114D-02-0.680D-02-0.428D-01
 Coeff-Com:  0.586D-01-0.222D-01 0.280D-01-0.550D-01-0.460D-01-0.225D+00
 Coeff-Com:  0.420D+00 0.888D+00
 Coeff:     -0.203D-01 0.960D-02-0.541D-02 0.734D-02 0.513D-02 0.701D-01
 Coeff:     -0.750D-01 0.208D-02 0.103D-01-0.114D-02-0.680D-02-0.428D-01
 Coeff:      0.586D-01-0.222D-01 0.280D-01-0.550D-01-0.460D-01-0.225D+00
 Coeff:      0.420D+00 0.888D+00
 Gap=     0.109 Goal=   None    Shift=    0.000
 RMSDP=3.36D-05 MaxDP=6.23D-04 DE=-3.78D-06 OVMax= 1.73D-03

 Cycle  46  Pass 1  IDiag  3:
 E=  1.59042949634988     Delta-E=       -0.000002646777 Rises=F Damp=F
 DIIS: error= 5.01D-05 at cycle  46 NSaved=  20.
 NSaved=20 IEnMin= 3 EnMin=  1.58718504757030     IErMin=20 ErrMin= 5.01D-05
 ErrMax= 5.01D-05  0.00D+00 EMaxC= 1.00D-01 BMatC= 1.22D-07 BMatP= 1.31D-07
 IDIUse=1 WtCom= 1.00D+00 WtEn= 0.00D+00
 Coeff-Com: -0.208D-01-0.211D-01 0.103D-01 0.624D-02-0.153D-01 0.103D+00
 Coeff-Com: -0.674D-01 0.301D-02-0.132D-02-0.149D-02 0.682D-02-0.969D-02
 Coeff-Com:  0.146D-01 0.272D-01-0.534D-01 0.458D-01-0.274D+00-0.607D+00
 Coeff-Com:  0.204D+00 0.165D+01
 Coeff:     -0.208D-01-0.211D-01 0.103D-01 0.624D-02-0.153D-01 0.103D+00
 Coeff:     -0.674D-01 0.301D-02-0.132D-02-0.149D-02 0.682D-02-0.969D-02
 Coeff:      0.146D-01 0.272D-01-0.534D-01 0.458D-01-0.274D+00-0.607D+00
 Coeff:      0.204D+00 0.165D+01
 Gap=     0.109 Goal=   None    Shift=    0.000
 RMSDP=9.08D-05 MaxDP=1.69D-03 DE=-2.65D-06 OVMax= 4.70D-03

 Cycle  47  Pass 1  IDiag  3:
 E=  1.59042269589906     Delta-E=       -0.000006800451 Rises=F Damp=F
 DIIS: error= 4.61D-05 at cycle  47 NSaved=  20.
 NSaved=20 IEnMin= 3 EnMin=  1.58718504757030     IErMin=20 ErrMin= 4.61D-05
 ErrMax= 4.61D-05  0.00D+00 EMaxC= 1.00D-01 BMatC= 1.27D-07 BMatP= 1.22D-07
 IDIUse=1 WtCom= 1.00D+00 WtEn= 0.00D+00
 Coeff-Com: -0.171D-01-0.161D-01 0.711D-02 0.605D-02-0.179D-01 0.968D-01
 Coeff-Com: -0.636D-01 0.533D-03 0.392D-02-0.188D-02-0.131D-02 0.380D-02
 Coeff-Com:  0.277D-01-0.436D-01 0.656D-01-0.275D+00-0.543D+00 0.109D+00
 Coeff-Com:  0.154D+01 0.116D+00
 Coeff:     -0.171D-01-0.161D-01 0.711D-02 0.605D-02-0.179D-01 0.968D-01
 Coeff:     -0.636D-01 0.533D-03 0.392D-02-0.188D-02-0.131D-02 0.380D-02
 Coeff:      0.277D-01-0.436D-01 0.656D-01-0.275D+00-0.543D+00 0.109D+00
 Coeff:      0.154D+01 0.116D+00
 Gap=     0.109 Goal=   None    Shift=    0.000
 RMSDP=7.48D-06 MaxDP=9.45D-05 DE=-6.80D-06 OVMax= 2.48D-04

 Cycle  48  Pass 1  IDiag  3:
 E=  1.59042223273650     Delta-E=       -0.000000463163 Rises=F Damp=F
 DIIS: error= 4.76D-05 at cycle  48 NSaved=  20.
 NSaved=20 IEnMin= 3 EnMin=  1.58718504757030     IErMin=19 ErrMin= 4.61D-05
 ErrMax= 4.76D-05  0.00D+00 EMaxC= 1.00D-01 BMatC= 1.04D-07 BMatP= 1.22D-07
 IDIUse=1 WtCom= 1.00D+00 WtEn= 0.00D+00
 Coeff-Com:  0.371D-02-0.598D-02 0.425D-02 0.434D-02-0.156D-01 0.241D-01
 Coeff-Com: -0.206D-01-0.234D-02 0.126D-01-0.853D-02 0.304D-02-0.683D-02
 Coeff-Com:  0.103D+00-0.523D-01-0.627D-01-0.457D-01-0.282D+00-0.127D+01
 Coeff-Com:  0.414D+00 0.220D+01
 Coeff:      0.371D-02-0.598D-02 0.425D-02 0.434D-02-0.156D-01 0.241D-01
 Coeff:     -0.206D-01-0.234D-02 0.126D-01-0.853D-02 0.304D-02-0.683D-02
 Coeff:      0.103D+00-0.523D-01-0.627D-01-0.457D-01-0.282D+00-0.127D+01
 Coeff:      0.414D+00 0.220D+01
 Gap=     0.109 Goal=   None    Shift=    0.000
 RMSDP=1.81D-04 MaxDP=3.36D-03 DE=-4.63D-07 OVMax= 9.31D-03

 Cycle  49  Pass 1  IDiag  3:
 E=  1.59040988430809     Delta-E=       -0.000012348428 Rises=F Damp=F
 DIIS: error= 5.11D-05 at cycle  49 NSaved=  20.
 NSaved=20 IEnMin= 3 EnMin=  1.58718504757030     IErMin=18 ErrMin= 4.61D-05
 ErrMax= 5.11D-05  0.00D+00 EMaxC= 1.00D-01 BMatC= 1.34D-07 BMatP= 1.04D-07
 IDIUse=1 WtCom= 1.00D+00 WtEn= 0.00D+00
 Coeff-Com:  0.657D-02-0.948D-02 0.743D-02 0.427D-02-0.232D-01 0.404D-01
 Coeff-Com: -0.345D-01-0.730D-03 0.156D-01-0.999D-02 0.235D-02 0.829D-01
 Coeff-Com: -0.347D-01-0.581D-01-0.914D-01-0.199D+00-0.950D+00-0.565D-02
 Coeff-Com:  0.202D+01 0.235D+00
 Coeff:      0.657D-02-0.948D-02 0.743D-02 0.427D-02-0.232D-01 0.404D-01
 Coeff:     -0.345D-01-0.730D-03 0.156D-01-0.999D-02 0.235D-02 0.829D-01
 Coeff:     -0.347D-01-0.581D-01-0.914D-01-0.199D+00-0.950D+00-0.565D-02
 Coeff:      0.202D+01 0.235D+00
 Gap=     0.109 Goal=   None    Shift=    0.000
 RMSDP=1.29D-05 MaxDP=1.74D-04 DE=-1.23D-05 OVMax= 4.64D-04

 Cycle  50  Pass 1  IDiag  3:
 E=  1.59040905444419     Delta-E=       -0.000000829864 Rises=F Damp=F
 DIIS: error= 4.00D-05 at cycle  50 NSaved=  20.
 NSaved=20 IEnMin= 3 EnMin=  1.58718504757030     IErMin=20 ErrMin= 4.00D-05
 ErrMax= 4.00D-05  0.00D+00 EMaxC= 1.00D-01 BMatC= 8.34D-08 BMatP= 1.04D-07
 IDIUse=1 WtCom= 1.00D+00 WtEn= 0.00D+00
 Coeff-Com:  0.524D-01-0.134D-01 0.288D-01 0.220D-01-0.169D+00 0.104D+00
 Coeff-Com: -0.183D-01-0.233D-01 0.427D-01-0.601D-02-0.354D-01 0.361D+00
 Coeff-Com: -0.131D+00-0.115D+00 0.154D+00 0.130D+01-0.865D-01-0.464D+01
 Coeff-Com: -0.138D+00 0.431D+01
 Coeff:      0.524D-01-0.134D-01 0.288D-01 0.220D-01-0.169D+00 0.104D+00
 Coeff:     -0.183D-01-0.233D-01 0.427D-01-0.601D-02-0.354D-01 0.361D+00
 Coeff:     -0.131D+00-0.115D+00 0.154D+00 0.130D+01-0.865D-01-0.464D+01
 Coeff:     -0.138D+00 0.431D+01
 Gap=     0.109 Goal=   None    Shift=    0.000
 RMSDP=4.32D-04 MaxDP=7.92D-03 DE=-8.30D-07 OVMax= 2.20D-02

 Cycle  51  Pass 1  IDiag  3:
 E=  1.59038784927498     Delta-E=       -0.000021205169 Rises=F Damp=F
 DIIS: error= 6.86D-05 at cycle  51 NSaved=  20.
 NSaved=20 IEnMin= 3 EnMin=  1.58718504757030     IErMin=19 ErrMin= 4.00D-05
 ErrMax= 6.86D-05  0.00D+00 EMaxC= 1.00D-01 BMatC= 2.94D-07 BMatP= 8.34D-08
 IDIUse=1 WtCom= 1.00D+00 WtEn= 0.00D+00
 Coeff-Com:  0.566D-01-0.156D-01 0.294D-01 0.189D-01-0.161D+00 0.731D-01
 Coeff-Com:  0.638D-02-0.279D-01 0.506D-01-0.940D-02-0.385D-01 0.179D+00
 Coeff-Com:  0.225D-01 0.618D-01 0.127D+01-0.149D+00-0.394D+01-0.507D+00
 Coeff-Com:  0.391D+01 0.176D+00
 Coeff:      0.566D-01-0.156D-01 0.294D-01 0.189D-01-0.161D+00 0.731D-01
 Coeff:      0.638D-02-0.279D-01 0.506D-01-0.940D-02-0.385D-01 0.179D+00
 Coeff:      0.225D-01 0.618D-01 0.127D+01-0.149D+00-0.394D+01-0.507D+00
 Coeff:      0.391D+01 0.176D+00
 Gap=     0.109 Goal=   None    Shift=    0.000
 RMSDP=2.52D-05 MaxDP=2.48D-04 DE=-2.12D-05 OVMax= 7.45D-04

 Cycle  52  Pass 1  IDiag  3:
 E=  1.59038732222666     Delta-E=       -0.000000527048 Rises=F Damp=F
 DIIS: error= 3.20D-05 at cycle  52 NSaved=  20.
 NSaved=20 IEnMin= 3 EnMin=  1.58718504757030     IErMin=20 ErrMin= 3.20D-05
 ErrMax= 3.20D-05  0.00D+00 EMaxC= 1.00D-01 BMatC= 4.56D-08 BMatP= 8.34D-08
 IDIUse=1 WtCom= 1.00D+00 WtEn= 0.00D+00
 Coeff-Com: -0.179D-01-0.353D-01 0.658D-01 0.114D-01-0.152D+00 0.326D+00
 Coeff-Com: -0.226D+00 0.169D-01-0.748D-02-0.655D-02 0.651D-01 0.336D-01
 Coeff-Com: -0.397D-01-0.543D+00 0.591D-01 0.239D+01 0.135D+00-0.321D+01
 Coeff-Com: -0.737D-01 0.220D+01
 Coeff:     -0.179D-01-0.353D-01 0.658D-01 0.114D-01-0.152D+00 0.326D+00
 Coeff:     -0.226D+00 0.169D-01-0.748D-02-0.655D-02 0.651D-01 0.336D-01
 Coeff:     -0.397D-01-0.543D+00 0.591D-01 0.239D+01 0.135D+00-0.321D+01
 Coeff:     -0.737D-01 0.220D+01
 Gap=     0.109 Goal=   None    Shift=    0.000
 RMSDP=1.46D-04 MaxDP=2.51D-03 DE=-5.27D-07 OVMax= 6.97D-03

 Cycle  53  Pass 1  IDiag  3:
 E=  1.59038252597247     Delta-E=       -0.000004796254 Rises=F Damp=F
 DIIS: error= 1.94D-05 at cycle  53 NSaved=  20.
 NSaved=20 IEnMin= 3 EnMin=  1.58718504757030     IErMin=20 ErrMin= 1.94D-05
 ErrMax= 1.94D-05  0.00D+00 EMaxC= 1.00D-01 BMatC= 4.88D-08 BMatP= 4.56D-08
 IDIUse=1 WtCom= 1.00D+00 WtEn= 0.00D+00
 Coeff-Com: -0.349D-01-0.138D-02 0.351D-01 0.112D-01-0.700D-01 0.197D+00
 Coeff-Com: -0.160D+00 0.188D-01-0.236D-01 0.986D-03 0.603D-01-0.123D-01
 Coeff-Com: -0.381D+00-0.193D-01 0.208D+01 0.170D+00-0.288D+01-0.158D+00
 Coeff-Com:  0.167D+01 0.490D+00
 Coeff:     -0.349D-01-0.138D-02 0.351D-01 0.112D-01-0.700D-01 0.197D+00
 Coeff:     -0.160D+00 0.188D-01-0.236D-01 0.986D-03 0.603D-01-0.123D-01
 Coeff:     -0.381D+00-0.193D-01 0.208D+01 0.170D+00-0.288D+01-0.158D+00
 Coeff:      0.167D+01 0.490D+00
 Gap=     0.109 Goal=   None    Shift=    0.000
 RMSDP=5.20D-05 MaxDP=9.12D-04 DE=-4.80D-06 OVMax= 2.48D-03

 Cycle  54  Pass 1  IDiag  3:
 E=  1.59038108609923     Delta-E=       -0.000001439873 Rises=F Damp=F
 DIIS: error= 1.62D-05 at cycle  54 NSaved=  20.
 NSaved=20 IEnMin= 3 EnMin=  1.58718504757030     IErMin=20 ErrMin= 1.62D-05
 ErrMax= 1.62D-05  0.00D+00 EMaxC= 1.00D-01 BMatC= 2.26D-08 BMatP= 4.56D-08
 IDIUse=1 WtCom= 1.00D+00 WtEn= 0.00D+00
 Coeff-Com: -0.305D-01 0.231D-01 0.560D-02 0.512D-02-0.134D-01 0.695D-01
 Coeff-Com: -0.680D-01 0.139D-01-0.277D-01 0.429D-02 0.354D-01-0.296D+00
 Coeff-Com: -0.515D-01 0.160D+01 0.944D-01-0.210D+01-0.372D-01 0.877D+00
 Coeff-Com:  0.227D-01 0.873D+00
 Coeff:     -0.305D-01 0.231D-01 0.560D-02 0.512D-02-0.134D-01 0.695D-01
 Coeff:     -0.680D-01 0.139D-01-0.277D-01 0.429D-02 0.354D-01-0.296D+00
 Coeff:     -0.515D-01 0.160D+01 0.944D-01-0.210D+01-0.372D-01 0.877D+00
 Coeff:      0.227D-01 0.873D+00
 Gap=     0.109 Goal=   None    Shift=    0.000
 RMSDP=7.14D-05 MaxDP=1.26D-03 DE=-1.44D-06 OVMax= 3.45D-03

 Cycle  55  Pass 1  IDiag  3:
 E=  1.59037966112521     Delta-E=       -0.000001424974 Rises=F Damp=F
 DIIS: error= 1.46D-05 at cycle  55 NSaved=  20.
 NSaved=20 IEnMin= 3 EnMin=  1.58718504757030     IErMin=20 ErrMin= 1.46D-05
 ErrMax= 1.46D-05  0.00D+00 EMaxC= 1.00D-01 BMatC= 2.44D-08 BMatP= 2.26D-08
 IDIUse=1 WtCom= 1.00D+00 WtEn= 0.00D+00
 Coeff-Com: -0.706D-02 0.457D-02 0.217D-01 0.376D-02-0.627D-01 0.103D+00
 Coeff-Com: -0.719D-01 0.105D-01-0.140D-01 0.446D-03 0.247D-01-0.126D+00
 Coeff-Com:  0.979D+00 0.571D-01-0.143D+01-0.829D-01 0.745D+00-0.125D+00
 Coeff-Com:  0.239D+00 0.734D+00
 Coeff:     -0.706D-02 0.457D-02 0.217D-01 0.376D-02-0.627D-01 0.103D+00
 Coeff:     -0.719D-01 0.105D-01-0.140D-01 0.446D-03 0.247D-01-0.126D+00
 Coeff:      0.979D+00 0.571D-01-0.143D+01-0.829D-01 0.745D+00-0.125D+00
 Coeff:      0.239D+00 0.734D+00
 Gap=     0.109 Goal=   None    Shift=    0.000
 RMSDP=9.22D-06 MaxDP=1.12D-04 DE=-1.42D-06 OVMax= 3.29D-04

 Cycle  56  Pass 1  IDiag  3:
 E=  1.59037943382600     Delta-E=       -0.000000227299 Rises=F Damp=F
 DIIS: error= 1.17D-05 at cycle  56 NSaved=  20.
 NSaved=20 IEnMin= 3 EnMin=  1.58718504757030     IErMin=20 ErrMin= 1.17D-05
 ErrMax= 1.17D-05  0.00D+00 EMaxC= 1.00D-01 BMatC= 9.93D-09 BMatP= 2.26D-08
 IDIUse=1 WtCom= 1.00D+00 WtEn= 0.00D+00
 Coeff-Com:  0.299D-02-0.114D-01 0.426D-02-0.720D-02 0.126D-01-0.866D-02
 Coeff-Com:  0.596D-02 0.256D-02 0.118D-02 0.722D-03-0.476D-02 0.109D+00
 Coeff-Com: -0.493D-01-0.173D+00 0.474D-01-0.143D-02-0.136D+00-0.596D+00
 Coeff-Com:  0.219D+00 0.158D+01
 Coeff:      0.299D-02-0.114D-01 0.426D-02-0.720D-02 0.126D-01-0.866D-02
 Coeff:      0.596D-02 0.256D-02 0.118D-02 0.722D-03-0.476D-02 0.109D+00
 Coeff:     -0.493D-01-0.173D+00 0.474D-01-0.143D-02-0.136D+00-0.596D+00
 Coeff:      0.219D+00 0.158D+01
 Gap=     0.109 Goal=   None    Shift=    0.000
 RMSDP=1.12D-04 MaxDP=1.97D-03 DE=-2.27D-07 OVMax= 5.40D-03

 Cycle  57  Pass 1  IDiag  3:
 E=  1.59037822298274     Delta-E=       -0.000001210843 Rises=F Damp=F
 DIIS: error= 1.77D-05 at cycle  57 NSaved=  20.
 NSaved=20 IEnMin= 3 EnMin=  1.58718504757030     IErMin=19 ErrMin= 1.17D-05
 ErrMax= 1.77D-05  0.00D+00 EMaxC= 1.00D-01 BMatC= 2.13D-08 BMatP= 9.93D-09
 IDIUse=1 WtCom= 1.00D+00 WtEn= 0.00D+00
 Coeff-Com:  0.137D-01-0.146D-01 0.787D-02-0.663D-02-0.805D-02 0.222D-02
 Coeff-Com:  0.389D-02 0.662D-03 0.517D-02-0.722D-04-0.799D-02-0.529D-01
 Coeff-Com:  0.779D-01-0.248D-01-0.853D-01-0.125D+00-0.307D+00-0.108D+00
 Coeff-Com:  0.115D+01 0.483D+00
 Coeff:      0.137D-01-0.146D-01 0.787D-02-0.663D-02-0.805D-02 0.222D-02
 Coeff:      0.389D-02 0.662D-03 0.517D-02-0.722D-04-0.799D-02-0.529D-01
 Coeff:      0.779D-01-0.248D-01-0.853D-01-0.125D+00-0.307D+00-0.108D+00
 Coeff:      0.115D+01 0.483D+00
 Gap=     0.109 Goal=   None    Shift=    0.000
 RMSDP=7.55D-06 MaxDP=8.54D-05 DE=-1.21D-06 OVMax= 1.87D-04

 Cycle  58  Pass 1  IDiag  3:
 E=  1.59037808786593     Delta-E=       -0.000000135117 Rises=F Damp=F
 DIIS: error= 6.98D-06 at cycle  58 NSaved=  20.
 NSaved=20 IEnMin= 3 EnMin=  1.58718504757030     IErMin=20 ErrMin= 6.98D-06
 ErrMax= 6.98D-06  0.00D+00 EMaxC= 1.00D-01 BMatC= 3.42D-09 BMatP= 9.93D-09
 IDIUse=1 WtCom= 1.00D+00 WtEn= 0.00D+00
 Coeff-Com:  0.124D-01-0.150D-01 0.955D-02-0.168D-02-0.230D-01 0.147D-01
 Coeff-Com:  0.365D-02-0.590D-02 0.105D-01-0.224D-02-0.750D-02 0.173D+00
 Coeff-Com:  0.136D-02-0.261D+00 0.971D-01 0.215D+00 0.888D-02-0.947D+00
 Coeff-Com: -0.192D+00 0.191D+01
 Coeff:      0.124D-01-0.150D-01 0.955D-02-0.168D-02-0.230D-01 0.147D-01
 Coeff:      0.365D-02-0.590D-02 0.105D-01-0.224D-02-0.750D-02 0.173D+00
 Coeff:      0.136D-02-0.261D+00 0.971D-01 0.215D+00 0.888D-02-0.947D+00
 Coeff:     -0.192D+00 0.191D+01
 Gap=     0.109 Goal=   None    Shift=    0.000
 RMSDP=1.90D-05 MaxDP=2.39D-04 DE=-1.35D-07 OVMax= 7.36D-04

 Cycle  59  Pass 1  IDiag  3:
 E=  1.59037792667641     Delta-E=       -0.000000161190 Rises=F Damp=F
 DIIS: error= 6.22D-06 at cycle  59 NSaved=  20.
 NSaved=20 IEnMin= 3 EnMin=  1.58718504757030     IErMin=20 ErrMin= 6.22D-06
 ErrMax= 6.22D-06  0.00D+00 EMaxC= 1.00D-01 BMatC= 2.73D-09 BMatP= 3.42D-09
 IDIUse=1 WtCom= 1.00D+00 WtEn= 0.00D+00
 Coeff-Com: -0.175D-02-0.335D-02 0.529D-02 0.204D-02-0.509D-02 0.359D-02
 Coeff-Com: -0.994D-03-0.351D-02 0.601D-02-0.887D-03 0.344D-03-0.229D-02
 Coeff-Com:  0.912D-01 0.233D-01 0.125D+00 0.364D-01-0.822D+00-0.946D-01
 Coeff-Com:  0.803D+00 0.837D+00
 Coeff:     -0.175D-02-0.335D-02 0.529D-02 0.204D-02-0.509D-02 0.359D-02
 Coeff:     -0.994D-03-0.351D-02 0.601D-02-0.887D-03 0.344D-03-0.229D-02
 Coeff:      0.912D-01 0.233D-01 0.125D+00 0.364D-01-0.822D+00-0.946D-01
 Coeff:      0.803D+00 0.837D+00
 Gap=     0.109 Goal=   None    Shift=    0.000
 RMSDP=2.23D-05 MaxDP=3.91D-04 DE=-1.61D-07 OVMax= 1.04D-03

 Cycle  60  Pass 1  IDiag  3:
 E=  1.59037783593567     Delta-E=       -0.000000090741 Rises=F Damp=F
 DIIS: error= 3.84D-06 at cycle  60 NSaved=  20.
 NSaved=20 IEnMin= 3 EnMin=  1.58718504757030     IErMin=20 ErrMin= 3.84D-06
 ErrMax= 3.84D-06  0.00D+00 EMaxC= 1.00D-01 BMatC= 1.89D-09 BMatP= 2.73D-09
 IDIUse=1 WtCom= 1.00D+00 WtEn= 0.00D+00
 Coeff-Com: -0.717D-04-0.488D-02 0.597D-02 0.110D-02-0.718D-02 0.940D-02
 Coeff-Com: -0.562D-02-0.170D-02 0.473D-02-0.109D-02 0.125D-03 0.546D-01
 Coeff-Com:  0.204D-01 0.755D-01 0.346D-01-0.495D+00-0.160D+00 0.538D+00
 Coeff-Com:  0.289D+00 0.642D+00
 Coeff:     -0.717D-04-0.488D-02 0.597D-02 0.110D-02-0.718D-02 0.940D-02
 Coeff:     -0.562D-02-0.170D-02 0.473D-02-0.109D-02 0.125D-03 0.546D-01
 Coeff:      0.204D-01 0.755D-01 0.346D-01-0.495D+00-0.160D+00 0.538D+00
 Coeff:      0.289D+00 0.642D+00
 Gap=     0.109 Goal=   None    Shift=    0.000
 RMSDP=3.73D-06 MaxDP=5.39D-05 DE=-9.07D-08 OVMax= 1.25D-04

 Cycle  61  Pass 1  IDiag  3:
 E=  1.59037781531561     Delta-E=       -0.000000020620 Rises=F Damp=F
 DIIS: error= 3.36D-06 at cycle  61 NSaved=  20.
 NSaved=20 IEnMin= 3 EnMin=  1.58718504757030     IErMin=20 ErrMin= 3.36D-06
 ErrMax= 3.36D-06  0.00D+00 EMaxC= 1.00D-01 BMatC= 8.31D-10 BMatP= 1.89D-09
 IDIUse=1 WtCom= 1.00D+00 WtEn= 0.00D+00
 Coeff-Com: -0.707D-02 0.750D-02-0.486D-02-0.201D-03 0.786D-02 0.624D-02
 Coeff-Com: -0.102D-01 0.287D-02-0.570D-02 0.847D-03 0.521D-02-0.617D-02
 Coeff-Com: -0.156D-01 0.642D-03 0.104D+00 0.421D-01-0.379D+00-0.332D+00
 Coeff-Com: -0.135D+00 0.172D+01
 Coeff:     -0.707D-02 0.750D-02-0.486D-02-0.201D-03 0.786D-02 0.624D-02
 Coeff:     -0.102D-01 0.287D-02-0.570D-02 0.847D-03 0.521D-02-0.617D-02
 Coeff:     -0.156D-01 0.642D-03 0.104D+00 0.421D-01-0.379D+00-0.332D+00
 Coeff:     -0.135D+00 0.172D+01
 Gap=     0.109 Goal=   None    Shift=    0.000
 RMSDP=1.03D-05 MaxDP=1.33D-04 DE=-2.06D-08 OVMax= 3.31D-04

 Cycle  62  Pass 1  IDiag  3:
 E=  1.59037777814353     Delta-E=       -0.000000037172 Rises=F Damp=F
 DIIS: error= 2.20D-06 at cycle  62 NSaved=  20.
 NSaved=20 IEnMin= 3 EnMin=  1.58718504757030     IErMin=20 ErrMin= 2.20D-06
 ErrMax= 2.20D-06  0.00D+00 EMaxC= 1.00D-01 BMatC= 5.22D-10 BMatP= 8.31D-10
 IDIUse=1 WtCom= 1.00D+00 WtEn= 0.00D+00
 Coeff-Com: -0.906D-03-0.477D-02-0.152D-03-0.215D-02 0.647D-02 0.907D-03
 Coeff-Com:  0.588D-03-0.387D-03 0.461D-03-0.137D-03-0.323D-03-0.224D-01
 Coeff-Com: -0.613D-02 0.881D-01 0.172D-01-0.991D-01-0.188D+00-0.163D+00
 Coeff-Com:  0.294D+00 0.108D+01
 Coeff:     -0.906D-03-0.477D-02-0.152D-03-0.215D-02 0.647D-02 0.907D-03
 Coeff:      0.588D-03-0.387D-03 0.461D-03-0.137D-03-0.323D-03-0.224D-01
 Coeff:     -0.613D-02 0.881D-01 0.172D-01-0.991D-01-0.188D+00-0.163D+00
 Coeff:      0.294D+00 0.108D+01
 Gap=     0.109 Goal=   None    Shift=    0.000
 RMSDP=3.50D-06 MaxDP=4.60D-05 DE=-3.72D-08 OVMax= 1.13D-04

 Cycle  63  Pass 1  IDiag  3:
 E=  1.59037776678463     Delta-E=       -0.000000011359 Rises=F Damp=F
 DIIS: error= 1.75D-06 at cycle  63 NSaved=  20.
 NSaved=20 IEnMin= 3 EnMin=  1.58718504757030     IErMin=20 ErrMin= 1.75D-06
 ErrMax= 1.75D-06  0.00D+00 EMaxC= 1.00D-01 BMatC= 2.79D-10 BMatP= 5.22D-10
 IDIUse=1 WtCom= 1.00D+00 WtEn= 0.00D+00
 Coeff-Com:  0.351D-02-0.215D-02 0.462D-04-0.331D-03 0.116D-02-0.856D-02
 Coeff-Com:  0.708D-02-0.161D-02 0.290D-02-0.538D-03-0.300D-02 0.246D-02
[...]
 Coeff-Com: -0.324D+00 0.160D+01
 Coeff:      0.335D-05 0.518D-04-0.545D-04 0.246D-04 0.530D-04-0.175D-03
 Coeff:      0.111D-03-0.119D-04 0.112D-04-0.111D-04-0.237D-07-0.264D-01
 Coeff:      0.229D-02 0.743D-01-0.212D-02-0.490D-01-0.972D-02-0.265D+00
 Coeff:     -0.324D+00 0.160D+01
 Gap=     0.109 Goal=   None    Shift=    0.000
 RMSDP=1.09D-07 MaxDP=1.73D-06 DE=-5.57D-12 OVMax= 4.65D-06

 Cycle  78  Pass 1  IDiag  3:
 E=  1.59037774130434     Delta-E=       -0.000000000009 Rises=F Damp=F
 DIIS: error= 3.46D-08 at cycle  78 NSaved=  20.
 NSaved=20 IEnMin= 3 EnMin=  1.58718504757030     IErMin=20 ErrMin= 3.46D-08
 ErrMax= 3.46D-08  0.00D+00 EMaxC= 1.00D-01 BMatC= 1.17D-13 BMatP= 1.56D-13
 IDIUse=1 WtCom= 1.00D+00 WtEn= 0.00D+00
 Large coefficients: NSaved= 20 BigCof=    0.00 CofMax=   10.00 Det=-9.95D-15
 Inversion failed.  Reducing to 19 matrices.
 Large coefficients: NSaved= 19 BigCof=    0.00 CofMax=   10.00 Det=-9.98D-15
 Inversion failed.  Reducing to 18 matrices.
 Coeff-Com: -0.107D-04 0.838D-04-0.533D-04 0.148D-04 0.597D-04-0.194D-03
 Coeff-Com:  0.110D-03 0.738D-05-0.264D-04 0.560D-06 0.201D-04 0.101D-01
 Coeff-Com:  0.301D-01-0.636D-01 0.257D-01-0.382D+00 0.214D+00 0.117D+01
 Coeff:     -0.107D-04 0.838D-04-0.533D-04 0.148D-04 0.597D-04-0.194D-03
 Coeff:      0.110D-03 0.738D-05-0.264D-04 0.560D-06 0.201D-04 0.101D-01
 Coeff:      0.301D-01-0.636D-01 0.257D-01-0.382D+00 0.214D+00 0.117D+01
 Gap=     0.109 Goal=   None    Shift=    0.000
 RMSDP=7.21D-08 MaxDP=1.30D-06 DE=-8.87D-12 OVMax= 3.48D-06

 Cycle  79  Pass 1  IDiag  3:
 E=  1.59037774129911     Delta-E=       -0.000000000005 Rises=F Damp=F
 DIIS: error= 3.00D-08 at cycle  79 NSaved=  19.
 NSaved=19 IEnMin= 3 EnMin=  1.58718504757030     IErMin=19 ErrMin= 3.00D-08
 ErrMax= 3.00D-08  0.00D+00 EMaxC= 1.00D-01 BMatC= 8.30D-14 BMatP= 1.17D-13
 IDIUse=1 WtCom= 1.00D+00 WtEn= 0.00D+00
 Large coefficients: NSaved= 19 BigCof=    0.00 CofMax=   10.00 Det=-9.84D-15
 Inversion failed.  Reducing to 18 matrices.
 Large coefficients: NSaved= 18 BigCof=    0.00 CofMax=   10.00 Det=-9.85D-15
 Inversion failed.  Reducing to 17 matrices.
 Large coefficients: NSaved= 17 BigCof=    0.00 CofMax=   10.00 Det=-9.85D-15
 Inversion failed.  Reducing to 16 matrices.
 Coeff-Com:  0.812D-06 0.887D-04-0.530D-04 0.218D-04-0.861D-05-0.138D-03
 Coeff-Com:  0.104D-03 0.195D-05-0.309D-04 0.102D-05 0.242D-04 0.305D-01
 Coeff-Com: -0.233D+00-0.470D-01-0.141D-01 0.126D+01
 Coeff:      0.812D-06 0.887D-04-0.530D-04 0.218D-04-0.861D-05-0.138D-03
 Coeff:      0.104D-03 0.195D-05-0.309D-04 0.102D-05 0.242D-04 0.305D-01
 Coeff:     -0.233D+00-0.470D-01-0.141D-01 0.126D+01
 Gap=     0.109 Goal=   None    Shift=    0.000
 RMSDP=8.05D-08 MaxDP=1.42D-06 DE=-5.23D-12 OVMax= 3.82D-06

 Cycle  80  Pass 1  IDiag  3:
 E=  1.59037774129717     Delta-E=       -0.000000000002 Rises=F Damp=F
 DIIS: error= 2.76D-08 at cycle  80 NSaved=  17.
 NSaved=17 IEnMin= 3 EnMin=  1.58718504757030     IErMin=17 ErrMin= 2.76D-08
 ErrMax= 2.76D-08  0.00D+00 EMaxC= 1.00D-01 BMatC= 6.98D-14 BMatP= 8.30D-14
 IDIUse=1 WtCom= 1.00D+00 WtEn= 0.00D+00
 Large coefficients: NSaved= 17 BigCof=    0.00 CofMax=   10.00 Det=-6.94D-15
 Inversion failed.  Reducing to 16 matrices.
 Large coefficients: NSaved= 16 BigCof=    0.00 CofMax=   10.00 Det=-6.98D-15
 Inversion failed.  Reducing to 15 matrices.
 Coeff-Com:  0.705D-05 0.677D-04-0.486D-04 0.243D-04 0.250D-04-0.193D-03
 Coeff-Com:  0.137D-03-0.728D-05-0.167D-04 0.490D-05-0.610D-06 0.860D-01
 Coeff-Com: -0.472D+00 0.257D+00 0.113D+01
 Coeff:      0.705D-05 0.677D-04-0.486D-04 0.243D-04 0.250D-04-0.193D-03
 Coeff:      0.137D-03-0.728D-05-0.167D-04 0.490D-05-0.610D-06 0.860D-01
 Coeff:     -0.472D+00 0.257D+00 0.113D+01
 Gap=     0.109 Goal=   None    Shift=    0.000
 RMSDP=3.93D-08 MaxDP=6.64D-07 DE=-1.93D-12 OVMax= 1.77D-06

 Cycle  81  Pass 1  IDiag  3:
 E=  1.59037774129513     Delta-E=       -0.000000000002 Rises=F Damp=F
 DIIS: error= 2.03D-08 at cycle  81 NSaved=  16.
 NSaved=16 IEnMin= 3 EnMin=  1.58718504757030     IErMin=16 ErrMin= 2.03D-08
 ErrMax= 2.03D-08  0.00D+00 EMaxC= 1.00D-01 BMatC= 3.44D-14 BMatP= 6.98D-14
 IDIUse=1 WtCom= 1.00D+00 WtEn= 0.00D+00
 Large coefficients: NSaved= 16 BigCof=    0.00 CofMax=   10.00 Det=-6.48D-15
 Inversion failed.  Reducing to 15 matrices.
 Coeff-Com: -0.669D-06 0.350D-04-0.266D-04 0.274D-04 0.226D-04-0.109D-03
 Coeff-Com:  0.593D-04-0.370D-05-0.241D-05-0.175D-05 0.284D-05-0.143D+00
 Coeff-Com: -0.440D+00 0.127D+00 0.146D+01
 Coeff:     -0.669D-06 0.350D-04-0.266D-04 0.274D-04 0.226D-04-0.109D-03
 Coeff:      0.593D-04-0.370D-05-0.241D-05-0.175D-05 0.284D-05-0.143D+00
 Coeff:     -0.440D+00 0.127D+00 0.146D+01
 Gap=     0.109 Goal=   None    Shift=    0.000
 RMSDP=8.42D-08 MaxDP=1.47D-06 DE=-2.05D-12 OVMax= 3.94D-06

 Cycle  82  Pass 1  IDiag  3:
 E=  1.59037774129433     Delta-E=       -0.000000000001 Rises=F Damp=F
 DIIS: error= 2.13D-08 at cycle  82 NSaved=  16.
 NSaved=16 IEnMin= 3 EnMin=  1.58718504757030     IErMin=15 ErrMin= 2.03D-08
 ErrMax= 2.13D-08  0.00D+00 EMaxC= 1.00D-01 BMatC= 3.52D-14 BMatP= 3.44D-14
 IDIUse=1 WtCom= 1.00D+00 WtEn= 0.00D+00
 Large coefficients: NSaved= 16 BigCof=    0.00 CofMax=   10.00 Det=-5.86D-15
 Inversion failed.  Reducing to 15 matrices.
 Coeff-Com: -0.122D-04 0.473D-04-0.307D-04 0.304D-04 0.319D-04-0.116D-03
 Coeff-Com:  0.580D-04-0.807D-06-0.118D-04 0.194D-05 0.682D-05-0.381D+00
 Coeff-Com: -0.127D+00 0.108D+01 0.431D+00
 Coeff:     -0.122D-04 0.473D-04-0.307D-04 0.304D-04 0.319D-04-0.116D-03
 Coeff:      0.580D-04-0.807D-06-0.118D-04 0.194D-05 0.682D-05-0.381D+00
 Coeff:     -0.127D+00 0.108D+01 0.431D+00
 Gap=     0.109 Goal=   None    Shift=    0.000
 RMSDP=1.52D-08 MaxDP=2.40D-07 DE=-7.96D-13 OVMax= 6.35D-07

 Cycle  83  Pass 1  IDiag  3:
 E=  1.59037774129160     Delta-E=       -0.000000000003 Rises=F Damp=F
 DIIS: error= 1.47D-08 at cycle  83 NSaved=  16.
 NSaved=16 IEnMin= 3 EnMin=  1.58718504757030     IErMin=16 ErrMin= 1.47D-08
 ErrMax= 1.47D-08  0.00D+00 EMaxC= 1.00D-01 BMatC= 1.43D-14 BMatP= 3.44D-14
 IDIUse=1 WtCom= 1.00D+00 WtEn= 0.00D+00
 Large coefficients: NSaved= 16 BigCof=    0.00 CofMax=   10.00 Det=-2.64D-15
 Inversion failed.  Reducing to 15 matrices.
 Coeff-Com: -0.238D-04 0.302D-04-0.836D-05 0.944D-05 0.184D-04-0.174D-04
 Coeff-Com: -0.720D-05 0.853D-05-0.251D-04 0.748D-05 0.193D-04-0.592D-02
 Coeff-Com: -0.608D+00 0.487D-01 0.156D+01
 Coeff:     -0.238D-04 0.302D-04-0.836D-05 0.944D-05 0.184D-04-0.174D-04
 Coeff:     -0.720D-05 0.853D-05-0.251D-04 0.748D-05 0.193D-04-0.592D-02
 Coeff:     -0.608D+00 0.487D-01 0.156D+01
 Gap=     0.109 Goal=   None    Shift=    0.000
 RMSDP=7.84D-08 MaxDP=1.35D-06 DE=-2.73D-12 OVMax= 3.66D-06

 Cycle  84  Pass 1  IDiag  3:
 E=  1.59037774129160     Delta-E=        0.000000000000 Rises=F Damp=F
 DIIS: error= 1.51D-08 at cycle  84 NSaved=  16.
 NSaved=16 IEnMin= 3 EnMin=  1.58718504757030     IErMin=15 ErrMin= 1.47D-08
 ErrMax= 1.51D-08  0.00D+00 EMaxC= 1.00D-01 BMatC= 1.82D-14 BMatP= 1.43D-14
 IDIUse=1 WtCom= 1.00D+00 WtEn= 0.00D+00
 Large coefficients: NSaved= 16 BigCof=    0.00 CofMax=   10.00 Det=-2.72D-15
 Inversion failed.  Reducing to 15 matrices.
 Coeff-Com: -0.218D-04 0.276D-04-0.691D-05 0.693D-05 0.104D-04-0.101D-04
 Coeff-Com: -0.313D-05 0.747D-05-0.267D-04 0.826D-05 0.184D-04-0.409D+00
 Coeff-Com: -0.175D+00 0.125D+01 0.337D+00
 Coeff:     -0.218D-04 0.276D-04-0.691D-05 0.693D-05 0.104D-04-0.101D-04
 Coeff:     -0.313D-05 0.747D-05-0.267D-04 0.826D-05 0.184D-04-0.409D+00
 Coeff:     -0.175D+00 0.125D+01 0.337D+00
 Gap=     0.109 Goal=   None    Shift=    0.000
 RMSDP=9.03D-09 MaxDP=1.40D-07 DE= 0.00D+00 OVMax= 3.48D-07

 Cycle  85  Pass 2  IDiag  1:
 SCF Done:  E(RPM6) =   1.59037774129     A.U. after   85 cycles
            NFock= 84  Conv=0.90D-08     -V/T= 1.0086
 KE=-1.856944870396D+02 PE=-1.093745850235D+03 EE= 5.780846012071D+02
 Leave Link  502 at Fri Jan  7 12:01:47 2022, MaxMem=   402653184 cpu:             522.3 elap:              84.7
 (Enter /work/01114/jfonner/frontera/gaussian/16rC.01/g16/l601.exe)
 Copying SCF densities to generalized density rwf, IOpCl= 0 IROHF=0.

 **********************************************************************

            Population analysis using the SCF Density.

 **********************************************************************

 Alpha  occ. eigenvalues --   -2.01472  -1.94229  -1.91249  -1.86813  -1.83819
 Alpha  occ. eigenvalues --   -1.79549  -1.76872  -1.76798  -1.71617  -1.68171
 Alpha  occ. eigenvalues --   -1.64326  -1.60619  -1.53414  -1.51725  -1.48190
 Alpha  occ. eigenvalues --   -1.43628  -1.39826  -1.37892  -1.36647  -1.32760
 Alpha  occ. eigenvalues --   -1.30874  -1.29291  -1.27679  -1.26444  -1.25364
 Alpha  occ. eigenvalues --   -1.24577  -1.23896  -1.23086  -1.21358  -1.19885
 Alpha  occ. eigenvalues --   -1.18764  -1.15416  -1.13368  -1.11747  -1.08754
 Alpha  occ. eigenvalues --   -1.08314  -1.07199  -1.06191  -1.05423  -1.04587
 Alpha  occ. eigenvalues --   -1.03940  -1.03729  -1.02999  -1.02280  -0.98774
 Alpha virt. eigenvalues --   -0.87907  -0.77681  -0.76751  -0.76184  -0.75791
 Alpha virt. eigenvalues --   -0.74118  -0.71465  -0.70850  -0.69704  -0.68724
 Alpha virt. eigenvalues --   -0.65910  -0.65444  -0.63929  -0.62823  -0.61884
 Alpha virt. eigenvalues --   -0.61011  -0.60778  -0.60551  -0.59539  -0.59288
 Alpha virt. eigenvalues --   -0.59179  -0.57880  -0.56471  -0.56163  -0.54940
 Alpha virt. eigenvalues --   -0.54747  -0.54541  -0.54515  -0.53733  -0.50937
 Alpha virt. eigenvalues --   -0.50569  -0.49983  -0.49683  -0.48901  -0.48100
 Alpha virt. eigenvalues --   -0.47268  -0.46697  -0.43140
          Condensed to atoms (all electrons):
               1          2          3          4          5          6
     1  C    3.645687   0.000000   0.000000   0.000000   0.000000   0.000000
     2  O    0.000000   5.696321   0.000000   0.000000   0.000000   0.000000
     3  N    0.000000   0.000000   5.229491   0.000000   0.000000   0.000000
     4  C    0.000000   0.000000   0.000000   3.769159   0.000000   0.000000
     5  C    0.000000   0.000000   0.000000   0.000000   3.619619   0.000000
     6  O    0.000000   0.000000   0.000000   0.000000   0.000000   6.148514
     7  N    0.000000   0.000000   0.000000   0.000000   0.000000   0.000000
     8  C    0.000000   0.000000   0.000000   0.000000   0.000000   0.000000
     9  C    0.000000   0.000000   0.000000   0.000000   0.000000   0.000000
    10  C    0.000000   0.000000   0.000000   0.000000   0.000000   0.000000
    11  C    0.000000   0.000000   0.000000   0.000000   0.000000   0.000000
    12  O    0.000000   0.000000   0.000000   0.000000   0.000000   0.000000
    13  N    0.000000   0.000000   0.000000   0.000000   0.000000   0.000000
    14  C    0.000000   0.000000   0.000000   0.000000   0.000000   0.000000
    15  C    0.000000   0.000000   0.000000   0.000000   0.000000   0.000000
    16  C    0.000000   0.000000   0.000000   0.000000   0.000000   0.000000
    17  N    0.000000   0.000000   0.000000   0.000000   0.000000   0.000000
    18  C    0.000000   0.000000   0.000000   0.000000   0.000000   0.000000
    19  C    0.000000   0.000000   0.000000   0.000000   0.000000   0.000000
    20  N    0.000000   0.000000   0.000000   0.000000   0.000000   0.000000
    21  H    0.000000   0.000000   0.000000   0.000000   0.000000   0.000000
    22  H    0.000000   0.000000   0.000000   0.000000   0.000000   0.000000
    23  H    0.000000   0.000000   0.000000   0.000000   0.000000   0.000000
               7          8          9         10         11         12
     1  C    0.000000   0.000000   0.000000   0.000000   0.000000   0.000000
     2  O    0.000000   0.000000   0.000000   0.000000   0.000000   0.000000
     3  N    0.000000   0.000000   0.000000   0.000000   0.000000   0.000000
     4  C    0.000000   0.000000   0.000000   0.000000   0.000000   0.000000
     5  C    0.000000   0.000000   0.000000   0.000000   0.000000   0.000000
     6  O    0.000000   0.000000   0.000000   0.000000   0.000000   0.000000
     7  N    5.340682   0.000000   0.000000   0.000000   0.000000   0.000000
     8  C    0.000000   3.816263   0.000000   0.000000   0.000000   0.000000
     9  C    0.000000   0.000000   4.274985   0.000000   0.000000   0.000000
    10  C    0.000000   0.000000   0.000000   2.926709   0.000000   0.000000
    11  C    0.000000   0.000000   0.000000   0.000000   3.619696   0.000000
    12  O    0.000000   0.000000   0.000000   0.000000   0.000000   6.130149
    13  N    0.000000   0.000000   0.000000   0.000000   0.000000   0.000000
    14  C    0.000000   0.000000   0.000000   0.000000   0.000000   0.000000
    15  C    0.000000   0.000000   0.000000   0.000000   0.000000   0.000000
    16  C    0.000000   0.000000   0.000000   0.000000   0.000000   0.000000
    17  N    0.000000   0.000000   0.000000   0.000000   0.000000   0.000000
    18  C    0.000000   0.000000   0.000000   0.000000   0.000000   0.000000
    19  C    0.000000   0.000000   0.000000   0.000000   0.000000   0.000000
    20  N    0.000000   0.000000   0.000000   0.000000   0.000000   0.000000
    21  H    0.000000   0.000000   0.000000   0.000000   0.000000   0.000000
    22  H    0.000000   0.000000   0.000000   0.000000   0.000000   0.000000
    23  H    0.000000   0.000000   0.000000   0.000000   0.000000   0.000000
              13         14         15         16         17         18
     1  C    0.000000   0.000000   0.000000   0.000000   0.000000   0.000000
     2  O    0.000000   0.000000   0.000000   0.000000   0.000000   0.000000
     3  N    0.000000   0.000000   0.000000   0.000000   0.000000   0.000000
     4  C    0.000000   0.000000   0.000000   0.000000   0.000000   0.000000
     5  C    0.000000   0.000000   0.000000   0.000000   0.000000   0.000000
     6  O    0.000000   0.000000   0.000000   0.000000   0.000000   0.000000
     7  N    0.000000   0.000000   0.000000   0.000000   0.000000   0.000000
     8  C    0.000000   0.000000   0.000000   0.000000   0.000000   0.000000
     9  C    0.000000   0.000000   0.000000   0.000000   0.000000   0.000000
    10  C    0.000000   0.000000   0.000000   0.000000   0.000000   0.000000
    11  C    0.000000   0.000000   0.000000   0.000000   0.000000   0.000000
    12  O    0.000000   0.000000   0.000000   0.000000   0.000000   0.000000
    13  N    5.461625   0.000000   0.000000   0.000000   0.000000   0.000000
    14  C    0.000000   2.921550   0.000000   0.000000   0.000000   0.000000
    15  C    0.000000   0.000000   3.384357   0.000000   0.000000   0.000000
    16  C    0.000000   0.000000   0.000000   4.250166   0.000000   0.000000
    17  N    0.000000   0.000000   0.000000   0.000000   5.127114   0.000000
    18  C    0.000000   0.000000   0.000000   0.000000   0.000000   3.510041
    19  C    0.000000   0.000000   0.000000   0.000000   0.000000   0.000000
    20  N    0.000000   0.000000   0.000000   0.000000   0.000000   0.000000
    21  H    0.000000   0.000000   0.000000   0.000000   0.000000   0.000000
    22  H    0.000000   0.000000   0.000000   0.000000   0.000000   0.000000
    23  H    0.000000   0.000000   0.000000   0.000000   0.000000   0.000000
              19         20         21         22         23
     1  C    0.000000   0.000000   0.000000   0.000000   0.000000
     2  O    0.000000   0.000000   0.000000   0.000000   0.000000
     3  N    0.000000   0.000000   0.000000   0.000000   0.000000
     4  C    0.000000   0.000000   0.000000   0.000000   0.000000
     5  C    0.000000   0.000000   0.000000   0.000000   0.000000
     6  O    0.000000   0.000000   0.000000   0.000000   0.000000
     7  N    0.000000   0.000000   0.000000   0.000000   0.000000
     8  C    0.000000   0.000000   0.000000   0.000000   0.000000
     9  C    0.000000   0.000000   0.000000   0.000000   0.000000
    10  C    0.000000   0.000000   0.000000   0.000000   0.000000
    11  C    0.000000   0.000000   0.000000   0.000000   0.000000
    12  O    0.000000   0.000000   0.000000   0.000000   0.000000
    13  N    0.000000   0.000000   0.000000   0.000000   0.000000
    14  C    0.000000   0.000000   0.000000   0.000000   0.000000
    15  C    0.000000   0.000000   0.000000   0.000000   0.000000
    16  C    0.000000   0.000000   0.000000   0.000000   0.000000
    17  N    0.000000   0.000000   0.000000   0.000000   0.000000
    18  C    0.000000   0.000000   0.000000   0.000000   0.000000
    19  C    3.126957   0.000000   0.000000   0.000000   0.000000
    20  N    0.000000   5.087487   0.000000   0.000000   0.000000
    21  H    0.000000   0.000000   0.726213   0.000000   0.000000
    22  H    0.000000   0.000000   0.000000   1.517215   0.000000
    23  H    0.000000   0.000000   0.000000   0.000000   0.670000
 Mulliken charges:
               1
     1  C    0.354313
     2  O    0.303679
     3  N   -0.229491
     4  C    0.230841
     5  C    0.380381
     6  O   -0.148514
     7  N   -0.340682
     8  C    0.183737
     9  C   -0.274985
    10  C    1.073291
    11  C    0.380304
    12  O   -0.130149
    13  N   -0.461625
    14  C    1.078450
    15  C    0.615643
    16  C   -0.250166
    17  N   -0.127114
    18  C    0.489959
    19  C    0.873043
    20  N   -0.087487
    21  H    0.273787
    22  H   -0.517215
    23  H    0.330000
 Sum of Mulliken charges =   4.00000
 Mulliken charges with hydrogens summed into heavy atoms:
               1
     1  C    0.628100
     2  O    0.303679
     3  N   -0.229491
     4  C    0.230841
     5  C    0.380381
     6  O   -0.148514
     7  N   -0.340682
     8  C    0.183737
     9  C   -0.792200
    10  C    1.073291
    11  C    0.380304
    12  O   -0.130149
    13  N   -0.461625
    14  C    1.408450
    15  C    0.615643
    16  C   -0.250166
    17  N   -0.127114
    18  C    0.489959
    19  C    0.873043
    20  N   -0.087487
 Charge=              4.0000 electrons
 Dipole moment (field-independent basis, Debye):
    X=             68.4668    Y=             -5.3552    Z=            140.4338  Tot=            156.3267
 N-N= 7.029461138090D+02 E-N=-1.093745850291D+03  KE=-1.856944870396D+02
 Leave Link  601 at Fri Jan  7 12:01:48 2022, MaxMem=   402653184 cpu:               1.7 elap:               0.3
 (Enter /work/01114/jfonner/frontera/gaussian/16rC.01/g16/l9999.exe)

 Test job not archived.
 1\1\GINC-C208-012\SP\RPM6\ZDO\C12H3N5O3(4+)\SA748948\07-Jan-2022\0\\#p
  int=acc2e=12 pm6 charge nosymm\\Atom number=23\\4,1\C,0,-1.63600655,0
 .17499612,4.60000724\O,0,-1.74400817,1.35600031,4.86199097\N,0,-1.0950
 0047,-0.70000479,5.41500454\C,0,-0.57199533,-0.31100555,6.66899843\C,0
 ,0.84001601,-0.85400874,6.79200257\O,0,1.02699873,-2.02200131,6.720002
 25\N,0,1.81000717,0.00198939,7.02300606\C,0,3.19099574,-0.42899304,7.1
 0099501\C,0,-1.41099912,-0.91298908,7.79700845\C,0,-0.72700584,-0.6449
 9759,9.12301223\C,0,3.91099259,0.25801709,8.22899215\O,0,4.06399693,1.
 47799802,8.227997\N,0,4.3639906,-0.5269912,9.18900777\C,0,5.06699613,0
 .01999652,10.32599226\C,0,3.87099569,-0.10299801,5.74799428\C,0,5.2469
 9862,-0.64299376,5.58099477\N,0,5.86100585,-0.68899547,4.3529907\C,0,6
 .10799181,-1.19699974,6.44801231\C,0,7.05900368,-1.22700154,4.48200734
 \N,0,7.23899786,-1.52298677,5.75101378\H,0,-1.93927934,-0.22723453,3.6
 5600718\H,0,-2.4023775,-0.51045186,7.79128993\H,0,4.49403255,0.5936738
 3,11.02420933\\Version=ES64L-G16RevC.01\HF=1.5903777\RMSD=9.029e-09\Di
 pole=8.0460028,0.7826138,4.4638512\PG=C01 [X(C12H3N5O3)]\\@


 WHERE THERE IS MUCH DESIRE TO LEARN, THERE OF NECESSITY WILL BE
 MUCH ARGUING, MUCH WRITING, MANY OPINIONS; FOR OPINION IN GOOD MEN
 IS BUT KNOWLEDGE IN THE MAKING. -- JOHN MILTON.
 Job cpu time:       0 days  0 hours  9 minutes 43.3 seconds.
 Elapsed time:       0 days  0 hours  1 minutes 35.5 seconds.
 File lengths (MBytes):  RWF=      6 Int=      0 D2E=      0 Chk=      2 Scr=      1
 Normal termination of Gaussian 16 at Fri Jan  7 12:01:48 2022.
