 Entering Gaussian System, Link 0=g16
 Input=NCCONCCOCCCNCCOCCCNCCOCCNCCNNCCONCCOCCCNCCOCOCNCCOCOCNCCOCCCNCCOCO_9.gjf
 Output=NCCONCCOCCCNCCOCCCNCCOCCNCCNNCCONCCOCCCNCCOCOCNCCOCOCNCCOCCCNCCOCO_9.log
 Initial command:
 /work/01114/jfonner/frontera/gaussian/16rC.01/g16/l1.exe "/scratch1/08249/sa748948/lsqc/26989325/Gau-41089.inp" -scrdir="/scratch1/08249/sa748948/lsqc/26989325/"
 Entering Link 1 = /work/01114/jfonner/frontera/gaussian/16rC.01/g16/l1.exe PID=     41099.
  
 Copyright (c) 1988-2019, Gaussian, Inc.  All Rights Reserved.
  
 This is part of the Gaussian(R) 16 program.  It is based on
 the Gaussian(R) 09 system (copyright 2009, Gaussian, Inc.),
 the Gaussian(R) 03 system (copyright 2003, Gaussian, Inc.),
 the Gaussian(R) 98 system (copyright 1998, Gaussian, Inc.),
 the Gaussian(R) 94 system (copyright 1995, Gaussian, Inc.),
 the Gaussian 92(TM) system (copyright 1992, Gaussian, Inc.),
 the Gaussian 90(TM) system (copyright 1990, Gaussian, Inc.),
 the Gaussian 88(TM) system (copyright 1988, Gaussian, Inc.),
 the Gaussian 86(TM) system (copyright 1986, Carnegie Mellon
 University), and the Gaussian 82(TM) system (copyright 1983,
 Carnegie Mellon University). Gaussian is a federally registered
 trademark of Gaussian, Inc.
  
 This software contains proprietary and confidential information,
 including trade secrets, belonging to Gaussian, Inc.
  
 This software is provided under written license and may be
 used, copied, transmitted, or stored only in accord with that
 written license.
  
 The following legend is applicable only to US Government
 contracts under FAR:
  
                    RESTRICTED RIGHTS LEGEND
  
 Use, reproduction and disclosure by the US Government is
 subject to restrictions as set forth in subparagraphs (a)
 and (c) of the Commercial Computer Software - Restricted
 Rights clause in FAR 52.227-19.
  
 Gaussian, Inc.
 340 Quinnipiac St., Bldg. 40, Wallingford CT 06492
  
  
 ---------------------------------------------------------------
 Warning -- This program may not be used in any manner that
 competes with the business of Gaussian, Inc. or will provide
 assistance to any competitor of Gaussian, Inc.  The licensee
 of this program is prohibited from giving any competitor of
 Gaussian, Inc. access to this program.  By using this program,
 the user acknowledges that Gaussian, Inc. is engaged in the
 business of creating and licensing software in the field of
 computational chemistry and represents and warrants to the
 licensee that it is not a competitor of Gaussian, Inc. and that
 it will not use this program in any manner prohibited above.
 ---------------------------------------------------------------
  

 Cite this work as:
 Gaussian 16, Revision C.01,
 M. J. Frisch, G. W. Trucks, H. B. Schlegel, G. E. Scuseria, 
 M. A. Robb, J. R. Cheeseman, G. Scalmani, V. Barone, 
 G. A. Petersson, H. Nakatsuji, X. Li, M. Caricato, A. V. Marenich, 
 J. Bloino, B. G. Janesko, R. Gomperts, B. Mennucci, H. P. Hratchian, 
 J. V. Ortiz, A. F. Izmaylov, J. L. Sonnenberg, D. Williams-Young, 
 F. Ding, F. Lipparini, F. Egidi, J. Goings, B. Peng, A. Petrone, 
 T. Henderson, D. Ranasinghe, V. G. Zakrzewski, J. Gao, N. Rega, 
 G. Zheng, W. Liang, M. Hada, M. Ehara, K. Toyota, R. Fukuda, 
 J. Hasegawa, M. Ishida, T. Nakajima, Y. Honda, O. Kitao, H. Nakai, 
 T. Vreven, K. Throssell, J. A. Montgomery, Jr., J. E. Peralta, 
 F. Ogliaro, M. J. Bearpark, J. J. Heyd, E. N. Brothers, K. N. Kudin, 
 V. N. Staroverov, T. A. Keith, R. Kobayashi, J. Normand, 
 K. Raghavachari, A. P. Rendell, J. C. Burant, S. S. Iyengar, 
 J. Tomasi, M. Cossi, J. M. Millam, M. Klene, C. Adamo, R. Cammi, 
 J. W. Ochterski, R. L. Martin, K. Morokuma, O. Farkas, 
 J. B. Foresman, and D. J. Fox, Gaussian, Inc., Wallingford CT, 2019.
 
 ******************************************
 Gaussian 16:  ES64L-G16RevC.01  3-Jul-2019
                 7-Jan-2022 
 ******************************************
 %chk=NCCONCCOCCCNCCOCCCNCCOCCNCCNNCCONCCOCCCNCCOCOCNCCOCOCNCCOCCCNCCOCO_9.chk
 %nproc=56
 Will use up to   56 processors via shared memory.
 %mem=3gb
 ---------------------------------
 #p int=acc2e=12 pm6 charge nosymm
 ---------------------------------
 1/18=10,28=-2,38=1,125=101,172=1/1;
 2/12=2,15=1,17=6,18=5,40=1/2;
 3/5=2,25=1,27=12,41=3900000/1,2,3;
 4/35=1/1;
 5/5=2,35=1,38=5,87=12/2;
 6/7=2,8=2,9=2,10=2,28=1,87=12/1;
 99/5=1,9=1/99;
 Leave Link    1 at Fri Jan  7 12:00:13 2022, MaxMem=   402653184 cpu:               2.7 elap:               0.5
 (Enter /work/01114/jfonner/frontera/gaussian/16rC.01/g16/l101.exe)
 --------------
 Atom number=14
 --------------
 Symbolic Z-matrix:
 Charge =  2 Multiplicity = 1
 c                    -4.35699  -0.673     2.58799 
 o                    -4.21199  -1.86999   2.49199 
 n                    -3.381     0.12499   2.953 
 c                    -2.062    -0.39      3.274 
 c                    -1.63601   0.175     4.60001 
 o                    -1.74401   1.356     4.86199 
 n                    -1.095    -0.7       5.415 
 c                    -0.572    -0.31101   6.669 
 c                    -0.993    -0.045     2.197 
 c                     0.39     -0.48799   2.64 
 h                    -5.30552  -0.20118   2.43771 
 h                    -1.26955  -0.4882    1.26319 
 h                     0.42342  -0.6938    6.75571 
 h                    -1.15902  -0.7322    7.45824 
 
 ITRead=  0  0  0  0  0  0  0  0  0  0  0  0  0  0
 MicOpt= -1 -1 -1 -1 -1 -1 -1 -1 -1 -1 -1 -1 -1 -1
 NAtoms=     14 NQM=       14 NQMF=       0 NMMI=      0 NMMIF=      0
                NMic=       0 NMicF=      0.
                    Isotopes and Nuclear Properties:
 (Nuclear quadrupole moments (NQMom) in fm**2, nuclear magnetic moments (NMagM)
  in nuclear magnetons)

  Atom         1           2           3           4           5           6           7           8           9          10
 IAtWgt=          12          16          14          12          12          16          14          12          12          12
 AtmWgt=  12.0000000  15.9949146  14.0030740  12.0000000  12.0000000  15.9949146  14.0030740  12.0000000  12.0000000  12.0000000
 NucSpn=           0           0           2           0           0           0           2           0           0           0
 AtZEff=  -0.0000000  -0.0000000  -0.0000000  -0.0000000  -0.0000000  -0.0000000  -0.0000000  -0.0000000  -0.0000000  -0.0000000
 NQMom=    0.0000000   0.0000000   2.0440000   0.0000000   0.0000000   0.0000000   2.0440000   0.0000000   0.0000000   0.0000000
 NMagM=    0.0000000   0.0000000   0.4037610   0.0000000   0.0000000   0.0000000   0.4037610   0.0000000   0.0000000   0.0000000
 AtZNuc=   6.0000000   8.0000000   7.0000000   6.0000000   6.0000000   8.0000000   7.0000000   6.0000000   6.0000000   6.0000000

  Atom        11          12          13          14
 IAtWgt=           1           1           1           1
 AtmWgt=   1.0078250   1.0078250   1.0078250   1.0078250
 NucSpn=           1           1           1           1
 AtZEff=  -0.0000000  -0.0000000  -0.0000000  -0.0000000
 NQMom=    0.0000000   0.0000000   0.0000000   0.0000000
 NMagM=    2.7928460   2.7928460   2.7928460   2.7928460
 AtZNuc=   1.0000000   1.0000000   1.0000000   1.0000000
 Background charge distribution read from input stream:
 Point Charges:
 XYZ=   -6.8150   -0.6680    1.6070 Q=    0.1840 A=    0.0000 R=    0.0000 C=    0.0000
 XYZ=   -5.7140    0.0020    2.3730 Q=    0.1690 A=    0.0000 R=    0.0000 C=    0.0000
 XYZ=   -1.3780   -0.6620    0.8970 Q=    0.8742 A=    0.0000 R=    0.0000 C=    0.0000
 XYZ=    0.8400   -0.8540    6.7920 Q=    0.2936 A=    0.0000 R=    0.0000 C=    0.0000
 XYZ=    1.0270   -2.0220    6.7200 Q=   -0.4614 A=    0.0000 R=    0.0000 C=    0.0000
 XYZ=   -1.4110   -0.9130    7.7970 Q=   -1.2094 A=    0.0000 R=    0.0000 C=    0.0000
 XYZ=   -0.7270   -0.6450    9.1230 Q=    0.9838 A=    0.0000 R=    0.0000 C=    0.0000
 XYZ=   -2.8000   -0.3490    7.7890 Q=    0.9737 A=    0.0000 R=    0.0000 C=    0.0000
 XYZ=    1.8100    0.0020    7.0230 Q=   -0.6094 A=    0.0000 R=    0.0000 C=    0.0000
 XYZ=    3.1910   -0.4290    7.1010 Q=   -0.0383 A=    0.0000 R=    0.0000 C=    0.0000
 XYZ=    3.9110    0.2580    8.2290 Q=    0.2652 A=    0.0000 R=    0.0000 C=    0.0000
 XYZ=    4.0640    1.4780    8.2280 Q=   -0.5489 A=    0.0000 R=    0.0000 C=    0.0000
 XYZ=    3.8710   -0.1030    5.7480 Q=    0.4467 A=    0.0000 R=    0.0000 C=    0.0000
 XYZ=    5.2470   -0.6430    5.5810 Q=   -0.4177 A=    0.0000 R=    0.0000 C=    0.0000
 XYZ=    5.8610   -0.6890    4.3530 Q=   -0.2968 A=    0.0000 R=    0.0000 C=    0.0000
 XYZ=    6.1080   -1.1970    6.4480 Q=    0.2630 A=    0.0000 R=    0.0000 C=    0.0000
 XYZ=    7.0590   -1.2270    4.4820 Q=    0.6103 A=    0.0000 R=    0.0000 C=    0.0000
 XYZ=    7.2390   -1.5230    5.7510 Q=   -0.3347 A=    0.0000 R=    0.0000 C=    0.0000
 XYZ=    4.3640   -0.5270    9.1890 Q=   -0.5070 A=    0.0000 R=    0.0000 C=    0.0000
 XYZ=    5.0670    0.0200   10.3260 Q=    0.3996 A=    0.0000 R=    0.0000 C=    0.0000
 XYZ=    4.2710    0.8170   11.2960 Q=    0.1621 A=    0.0000 R=    0.0000 C=    0.0000
 XYZ=    4.3590    2.0330   11.3670 Q=   -0.2980 A=    0.0000 R=    0.0000 C=    0.0000
 XYZ=    3.4920    0.1040   12.0730 Q=   -0.4667 A=    0.0000 R=    0.0000 C=    0.0000
 XYZ=    2.5850    0.6770   13.0850 Q=    0.2746 A=    0.0000 R=    0.0000 C=    0.0000
 XYZ=    3.0060    0.0470   14.3610 Q=    0.2391 A=    0.0000 R=    0.0000 C=    0.0000
 XYZ=    2.9580   -1.1690   14.5150 Q=   -0.4626 A=    0.0000 R=    0.0000 C=    0.0000
 XYZ=    1.1270    0.3300   12.8270 Q=   -1.2217 A=    0.0000 R=    0.0000 C=    0.0000
 XYZ=    0.2480    0.6750   14.0380 Q=    0.9822 A=    0.0000 R=    0.0000 C=    0.0000
 XYZ=    0.6740    1.0470   11.5960 Q=    0.9278 A=    0.0000 R=    0.0000 C=    0.0000
 XYZ=    3.4810    0.8870   15.2620 Q=   -0.6284 A=    0.0000 R=    0.0000 C=    0.0000
 XYZ=    4.1630    0.3920   16.4420 Q=    0.1821 A=    0.0000 R=    0.0000 C=    0.0000
 XYZ=    3.4240    0.9650   17.6310 Q=    0.3166 A=    0.0000 R=    0.0000 C=    0.0000
 XYZ=    3.1360    2.1100   17.6120 Q=   -0.5694 A=    0.0000 R=    0.0000 C=    0.0000
 XYZ=    5.6880    0.7500   16.3890 Q=   -0.3175 A=    0.0000 R=    0.0000 C=    0.0000
 XYZ=    6.2640    0.1300   15.2360 Q=   -0.3082 A=    0.0000 R=    0.0000 C=    0.0000
 XYZ=    6.4200    0.2100   17.5690 Q=    0.9463 A=    0.0000 R=    0.0000 C=    0.0000
 XYZ=    3.1730    0.1290   18.6470 Q=   -0.5421 A=    0.0000 R=    0.0000 C=    0.0000
 XYZ=    2.5590    0.5160   19.9030 Q=    0.0236 A=    0.0000 R=    0.0000 C=    0.0000
 XYZ=    3.3500   -0.1220   21.0140 Q=    0.1847 A=    0.0000 R=    0.0000 C=    0.0000
 XYZ=    3.3660   -1.3390   21.1400 Q=   -0.4163 A=    0.0000 R=    0.0000 C=    0.0000
 XYZ=    1.1380   -0.0210   19.9830 Q=   -0.2907 A=    0.0000 R=    0.0000 C=    0.0000
 XYZ=    0.3930    0.3940   18.8240 Q=   -0.3415 A=    0.0000 R=    0.0000 C=    0.0000
 XYZ=    0.4860    0.5010   21.1670 Q=    0.7765 A=    0.0000 R=    0.0000 C=    0.0000
 XYZ=    4.0670    0.6880   21.7680 Q=   -0.6191 A=    0.0000 R=    0.0000 C=    0.0000
 XYZ=    4.8880    0.2050   22.8510 Q=    0.2833 A=    0.0000 R=    0.0000 C=    0.0000
 XYZ=    4.3500    0.7690   24.1740 Q=    0.1730 A=    0.0000 R=    0.0000 C=    0.0000
 XYZ=    4.1610    1.9810   24.2690 Q=   -0.2861 A=    0.0000 R=    0.0000 C=    0.0000
 XYZ=    6.3620    0.6140   22.6520 Q=   -1.1933 A=    0.0000 R=    0.0000 C=    0.0000
 XYZ=    7.1520    0.2970   23.8740 Q=    0.8585 A=    0.0000 R=    0.0000 C=    0.0000
 XYZ=    6.9530   -0.1210   21.4550 Q=    0.9590 A=    0.0000 R=    0.0000 C=    0.0000
 XYZ=    4.0650   -0.1200   25.1510 Q=   -0.4907 A=    0.0000 R=    0.0000 C=    0.0000
 XYZ=    3.7200    0.3130   26.5150 Q=   -0.3576 A=    0.0000 R=    0.0000 C=    0.0000
 XYZ=    4.9410    0.1400   27.4200 Q=    0.0549 A=    0.0000 R=    0.0000 C=    0.0000
 XYZ=    5.7140   -0.8090   27.2870 Q=   -0.0565 A=    0.0000 R=    0.0000 C=    0.0000
 XYZ=    2.4990   -0.4220   27.0620 Q=    1.1023 A=    0.0000 R=    0.0000 C=    0.0000
 XYZ=    5.2500    0.9550   28.2940 Q=    0.3115 A=    0.0000 R=    0.0000 C=    0.0000
 Pt Chg Charge=              0.9314 electrons
 Pt Chg Dipole moment (Debye):
    X=            -33.8613    Y=             -6.2797    Z=             47.6598  Tot=             58.8004
 Pt Chg Quadrupole moment (Debye-Ang):
   XX=            256.4842   YY=            -37.5671   ZZ=           2095.4964
   XY=            -46.5128   XZ=             79.0437   YZ=           -113.5498
 Pt Chg Traceless Quadrupole moment (Debye-Ang):
   XX=           -514.9870   YY=           -809.0382   ZZ=           1324.0252
   XY=            -46.5128   XZ=             79.0437   YZ=           -113.5498
 Pt Chg Octapole moment (Debye-Ang**2):
  XXX=           1372.0443  YYY=            -24.6902  ZZZ=          71472.5800  XYY=           -142.1347
  XXY=           -307.5896  XXZ=           4505.7724  XZZ=           8953.7109  YZZ=          -2861.5356
  YYZ=           -564.9272  XYZ=           -854.0160
 Pt Chg Hexadecapole moment (Debye-Ang**3):
 XXXX=          19702.1368 YYYY=           -155.4950 ZZZZ=        2200064.4955 XXXY=          -1145.2319
 XXXZ=          40104.3652 YYYX=           -174.3948 YYYZ=           -557.8108 ZZZX=         308652.5969
 ZZZY=         -67598.4139 XXYY=           -503.2993 XXZZ=         110129.3983 YYZZ=          -9337.7689
 XXYZ=          -3949.6059 YYXZ=          -2223.1260 ZZXY=         -15792.5203
 Leave Link  101 at Fri Jan  7 12:00:15 2022, MaxMem=   402653184 cpu:               8.0 elap:               1.4
 (Enter /work/01114/jfonner/frontera/gaussian/16rC.01/g16/l202.exe)
                          Input orientation:                          
 ---------------------------------------------------------------------
 Center     Atomic      Atomic             Coordinates (Angstroms)
 Number     Number       Type             X           Y           Z
 ---------------------------------------------------------------------
      1          6           0       -4.356992   -0.672999    2.587993
      2          8           0       -4.211992   -1.869995    2.491990
      3          7           0       -3.381001    0.124990    2.952998
      4          6           0       -2.062005   -0.390005    3.273999
      5          6           0       -1.636007    0.174996    4.600007
      6          8           0       -1.744008    1.356000    4.861991
      7          7           0       -1.095000   -0.700005    5.415005
      8          6           0       -0.571995   -0.311006    6.668998
      9          6           0       -0.992999   -0.045002    2.197002
     10          6           0        0.390000   -0.487990    2.640005
     11          1           0       -5.305518   -0.201179    2.437709
     12          1           0       -1.269554   -0.488195    1.263194
     13          1           0        0.423418   -0.693802    6.755712
     14          1           0       -1.159023   -0.732197    7.458236
 ---------------------------------------------------------------------
                    Distance matrix (angstroms):
                    1          2          3          4          5
     1  C    0.000000
     2  O    1.209562   0.000000
     3  N    1.312469   2.209760   0.000000
     4  C    2.411982   2.724767   1.451900   0.000000
     5  C    3.488704   3.906587   2.400030   1.502996   0.000000
     6  O    4.014423   4.702647   2.799890   2.381465   1.214525
     7  N    4.316632   4.430409   3.459464   2.369620   1.312454
     8  C    5.577799   5.755642   4.678596   3.708421   2.376771
     9  C    3.444373   3.712079   2.510574   1.556189   2.497257
    10  C    4.750881   4.807304   3.833296   2.534536   2.895835
    11  H    1.070000   1.995918   2.018830   3.354909   4.275787
    12  H    3.364747   3.475234   2.773021   2.163552   3.421759
    13  H    6.342131   6.407010   5.441016   4.288582   3.105334
    14  H    5.826644   5.939596   5.095991   4.294218   3.036443
                    6          7          8          9         10
     6  O    0.000000
     7  N    2.225801   0.000000
     8  C    2.723564   1.413278   0.000000
     9  C    3.103061   3.285571   4.499640   0.000000
    10  C    3.590475   3.154489   4.146028   1.518281   0.000000
    11  H    4.581081   5.180885   6.349969   4.322054   5.706322
    12  H    4.071548   4.160873   5.453504   1.070000   2.156322
    13  H    3.533497   2.025618   1.070000   4.817574   4.120985
    14  H    3.382789   2.044488   1.070000   5.308520   5.066997
                   11         12         13         14
    11  H    0.000000
    12  H    4.213178   0.000000
    13  H    7.190864   5.751189   0.000000
    14  H    6.533077   6.200831   1.731801   0.000000
 Symmetry turned off by external request.
 Stoichiometry    C6H4N2O2(2+)
 Framework group  C1[X(C6H4N2O2)]
 Deg. of freedom    36
 Full point group                 C1      NOp   1
 Rotational constants (GHZ):           2.0618270           0.9493088           0.8114403
 Leave Link  202 at Fri Jan  7 12:00:15 2022, MaxMem=   402653184 cpu:               2.5 elap:               0.5
 (Enter /work/01114/jfonner/frontera/gaussian/16rC.01/g16/l301.exe)
 Standard basis: VSTO-6G (5D, 7F)
 Ernie: Thresh=  0.10000D-02 Tol=  0.10000D-05 Strict=F.
  NNHCO=     0 NNPyr=     0 NCTC=     0               EPep=         0.000000000
    EC=       200.027211563  ECS=         3.259951726   EG=         0.280028906
   EHC=         0.001177300  EAt=       -61.016910202  AtH=         2.516083127
 EPDDG=         0.000000000  ECC=       203.568369495 EAtT=        63.532993329
    44 basis functions,   264 primitive gaussians,    44 cartesian basis functions
    24 alpha electrons       24 beta electrons
       nuclear repulsion energy       267.1013628235 Hartrees.
 IExCor=    0 DFT=F Ex=HF Corr=None ExCW=0 ScaHFX=  1.000000
 ScaDFX=  1.000000  1.000000  1.000000  1.000000 ScalE2=  1.000000  1.000000
 IRadAn=      5 IRanWt=     -1 IRanGd=            0 ICorTp=0 IEmpDi=  4
 Integral buffers will be    131072 words long.
 Regular integral format.
 Two-electron integral symmetry is turned off.
 Background charge distribution read from rwf.
 PtFMM for NChg=        70 BoxLen=    40.00 Levels= 1 LMax=20 SMax=    51.8 ICnFMM=     1:
 Self energy of the charges =        -3.1283638703 a.u.
 MM   energy of the charges =         0.0000000000 a.u.
 Nuclei-charges interaction =         7.1308732304 a.u.
 Nuclear repulsion after external point charges =      271.1038721836 Hartrees.
 Leave Link  301 at Fri Jan  7 12:00:16 2022, MaxMem=   402653184 cpu:               4.5 elap:               0.8
 (Enter /work/01114/jfonner/frontera/gaussian/16rC.01/g16/l302.exe)
 Do NDO integrals.
 NPDir=0 NMtPBC=     1 NCelOv=     1 NCel=       1 NClECP=     1 NCelD=      1
         NCelK=      1 NCelE2=     1 NClLst=     1 CellRange=     0.0.
 One-electron integrals computed using PRISM.
 NBasis=    44 RedAO= F EigKep=  0.00D+00  NBF=    44
 NBsUse=    44 1.00D-04 EigRej=  0.00D+00 NBFU=    44
 Leave Link  302 at Fri Jan  7 12:00:19 2022, MaxMem=   402653184 cpu:              20.4 elap:               3.5
 (Enter /work/01114/jfonner/frontera/gaussian/16rC.01/g16/l303.exe)
 DipDrv:  MaxL=1.
 Leave Link  303 at Fri Jan  7 12:00:20 2022, MaxMem=   402653184 cpu:               3.8 elap:               0.6
 (Enter /work/01114/jfonner/frontera/gaussian/16rC.01/g16/l401.exe)
 Simple Huckel Guess.
 JPrj=0 DoOrth=F DoCkMO=F.
 Leave Link  401 at Fri Jan  7 12:00:22 2022, MaxMem=   402653184 cpu:               8.2 elap:               1.6
 (Enter /work/01114/jfonner/frontera/gaussian/16rC.01/g16/l502.exe)
 Keep J ints in memory in canonical form, NReq=865179.
 FoFCou: FMM=F IPFlag=           0 FMFlag=           0 FMFlg1=           0
         NFxFlg=           0 DoJE=F BraDBF=F KetDBF=F FulRan=T
         wScrn=  0.000000 ICntrl=       600 IOpCl=  2 I1Cent=           0 NGrid=           0
         NMat0=    1 NMatS0=    104 NMatT0=    0 NMatD0=    1 NMtDS0=    0 NMtDT0=    0
 Symmetry not used in FoFCou.
 Two-electron integral symmetry not used.
 Closed shell SCF:
 Using DIIS extrapolation, IDIIS=  1040.
 Overlap will be assumed to be unity.
 NGot=   402653184 LenX=   402581398 LenY=   402579021
 Requested convergence on RMS density matrix=1.00D-08 within 128 cycles.
 Requested convergence on MAX density matrix=1.00D-06.
 Requested convergence on             energy=1.00D-06.
 No special actions if energy rises.

 Cycle   1  Pass 1  IDiag  1:
 E=-0.591699323322359    
 DIIS: error= 7.88D-02 at cycle   1 NSaved=   1.
 NSaved= 1 IEnMin= 1 EnMin=-0.591699323322359     IErMin= 1 ErrMin= 7.88D-02
 ErrMax= 7.88D-02  0.00D+00 EMaxC= 1.00D-01 BMatC= 2.38D-01 BMatP= 2.38D-01
 IDIUse=3 WtCom= 2.12D-01 WtEn= 7.88D-01
 Coeff-Com:  0.100D+01
 Coeff-En:   0.100D+01
 Coeff:      0.100D+01
 GapD=    2.000 DampG=2.000 DampE=0.500 DampFc=1.0000 IDamp=-1.
 RMSDP=4.00D-02 MaxDP=4.23D-01              OVMax= 0.00D+00

 Cycle   2  Pass 1  IDiag  1:
 E= -1.24339110708490     Delta-E=       -0.651691783763 Rises=F Damp=F
 DIIS: error= 3.54D-02 at cycle   2 NSaved=   2.
 NSaved= 2 IEnMin= 2 EnMin= -1.24339110708490     IErMin= 2 ErrMin= 3.54D-02
 ErrMax= 3.54D-02  0.00D+00 EMaxC= 1.00D-01 BMatC= 9.78D-02 BMatP= 2.38D-01
 IDIUse=3 WtCom= 6.46D-01 WtEn= 3.54D-01
 Coeff-Com:  0.282D+00 0.718D+00
 Coeff-En:   0.000D+00 0.100D+01
 Coeff:      0.182D+00 0.818D+00
 RMSDP=3.49D-02 MaxDP=5.88D-01 DE=-6.52D-01 OVMax= 0.00D+00

 Cycle   3  Pass 1  IDiag  1:
 E= -1.38850514481396     Delta-E=       -0.145114037729 Rises=F Damp=F
 DIIS: error= 2.62D-02 at cycle   3 NSaved=   3.
 NSaved= 3 IEnMin= 3 EnMin= -1.38850514481396     IErMin= 3 ErrMin= 2.62D-02
 ErrMax= 2.62D-02  0.00D+00 EMaxC= 1.00D-01 BMatC= 5.16D-02 BMatP= 9.78D-02
 IDIUse=3 WtCom= 7.38D-01 WtEn= 2.62D-01
 Coeff-Com: -0.739D-01 0.396D+00 0.677D+00
 Coeff-En:   0.000D+00 0.369D+00 0.631D+00
 Coeff:     -0.545D-01 0.389D+00 0.665D+00
 RMSDP=3.29D-02 MaxDP=5.99D-01 DE=-1.45D-01 OVMax= 0.00D+00

 Cycle   4  Pass 1  IDiag  1:
 E= -1.60399787108406     Delta-E=       -0.215492726270 Rises=F Damp=F
 DIIS: error= 1.42D-02 at cycle   4 NSaved=   4.
 NSaved= 4 IEnMin= 4 EnMin= -1.60399787108406     IErMin= 4 ErrMin= 1.42D-02
 ErrMax= 1.42D-02  0.00D+00 EMaxC= 1.00D-01 BMatC= 1.95D-02 BMatP= 5.16D-02
 IDIUse=3 WtCom= 8.58D-01 WtEn= 1.42D-01
 Coeff-Com: -0.518D-01-0.109D+00 0.365D+00 0.796D+00
 Coeff-En:   0.000D+00 0.000D+00 0.147D+00 0.853D+00
 Coeff:     -0.444D-01-0.939D-01 0.334D+00 0.804D+00
 RMSDP=8.42D-03 MaxDP=6.56D-02 DE=-2.15D-01 OVMax= 0.00D+00

 Cycle   5  Pass 1  IDiag  3:
 E= -1.69069494356239     Delta-E=       -0.086697072478 Rises=F Damp=F
 DIIS: error= 6.00D-03 at cycle   5 NSaved=   5.
 NSaved= 5 IEnMin= 5 EnMin= -1.69069494356239     IErMin= 5 ErrMin= 6.00D-03
 ErrMax= 6.00D-03  0.00D+00 EMaxC= 1.00D-01 BMatC= 4.30D-03 BMatP= 1.95D-02
 IDIUse=3 WtCom= 9.40D-01 WtEn= 6.00D-02
 Coeff-Com:  0.215D-02-0.654D-02 0.777D-01-0.453D+00 0.138D+01
 Coeff-En:   0.000D+00 0.000D+00 0.000D+00 0.000D+00 0.100D+01
 Coeff:      0.202D-02-0.615D-02 0.730D-01-0.426D+00 0.136D+01
 Gap=     0.110 Goal=   None    Shift=    0.000
 RMSDP=6.37D-03 MaxDP=5.25D-02 DE=-8.67D-02 OVMax= 1.33D-01

 Cycle   6  Pass 1  IDiag  3:
 E= -1.71741754036884     Delta-E=       -0.026722596806 Rises=F Damp=F
 DIIS: error= 1.95D-03 at cycle   6 NSaved=   6.
 NSaved= 6 IEnMin= 6 EnMin= -1.71741754036884     IErMin= 6 ErrMin= 1.95D-03
 ErrMax= 1.95D-03  0.00D+00 EMaxC= 1.00D-01 BMatC= 2.70D-04 BMatP= 4.30D-03
 IDIUse=3 WtCom= 9.80D-01 WtEn= 1.95D-02
 Coeff-Com:  0.111D-02 0.992D-02-0.297D-01 0.145D-01-0.295D+00 0.130D+01
 Coeff-En:   0.000D+00 0.000D+00 0.000D+00 0.000D+00 0.000D+00 0.100D+01
 Coeff:      0.109D-02 0.973D-02-0.291D-01 0.143D-01-0.289D+00 0.129D+01
 Gap=     0.144 Goal=   None    Shift=    0.000
 RMSDP=2.19D-03 MaxDP=1.58D-02 DE=-2.67D-02 OVMax= 2.75D-02

 Cycle   7  Pass 1  IDiag  3:
 E= -1.72002640604234     Delta-E=       -0.002608865673 Rises=F Damp=F
 DIIS: error= 1.29D-03 at cycle   7 NSaved=   7.
 NSaved= 7 IEnMin= 7 EnMin= -1.72002640604234     IErMin= 7 ErrMin= 1.29D-03
 ErrMax= 1.29D-03  0.00D+00 EMaxC= 1.00D-01 BMatC= 8.62D-05 BMatP= 2.70D-04
 IDIUse=3 WtCom= 9.87D-01 WtEn= 1.29D-02
 Coeff-Com:  0.725D-03-0.105D-01-0.890D-02 0.291D-01 0.143D+00-0.742D+00
 Coeff-Com:  0.159D+01
 Coeff-En:   0.000D+00 0.000D+00 0.000D+00 0.000D+00 0.000D+00 0.000D+00
 Coeff-En:   0.100D+01
 Coeff:      0.715D-03-0.104D-01-0.879D-02 0.287D-01 0.142D+00-0.732D+00
 Coeff:      0.158D+01
 Gap=     0.142 Goal=   None    Shift=    0.000
 RMSDP=1.28D-03 MaxDP=9.32D-03 DE=-2.61D-03 OVMax= 2.05D-02

 Cycle   8  Pass 1  IDiag  3:
 E= -1.72097424861022     Delta-E=       -0.000947842568 Rises=F Damp=F
 DIIS: error= 6.47D-04 at cycle   8 NSaved=   8.
 NSaved= 8 IEnMin= 8 EnMin= -1.72097424861022     IErMin= 8 ErrMin= 6.47D-04
 ErrMax= 6.47D-04  0.00D+00 EMaxC= 1.00D-01 BMatC= 1.92D-05 BMatP= 8.62D-05
 IDIUse=3 WtCom= 9.94D-01 WtEn= 6.47D-03
 Coeff-Com: -0.394D-03 0.663D-02 0.362D-02-0.177D-01-0.197D-01 0.522D-01
 Coeff-Com: -0.613D+00 0.159D+01
 Coeff-En:   0.000D+00 0.000D+00 0.000D+00 0.000D+00 0.000D+00 0.000D+00
 Coeff-En:   0.000D+00 0.100D+01
 Coeff:     -0.392D-03 0.659D-02 0.359D-02-0.176D-01-0.195D-01 0.518D-01
 Coeff:     -0.609D+00 0.158D+01
 Gap=     0.144 Goal=   None    Shift=    0.000
 RMSDP=1.06D-03 MaxDP=8.47D-03 DE=-9.48D-04 OVMax= 1.89D-02

 Cycle   9  Pass 1  IDiag  3:
 E= -1.72139458378126     Delta-E=       -0.000420335171 Rises=F Damp=F
 DIIS: error= 4.36D-04 at cycle   9 NSaved=   9.
 NSaved= 9 IEnMin= 9 EnMin= -1.72139458378126     IErMin= 9 ErrMin= 4.36D-04
 ErrMax= 4.36D-04  0.00D+00 EMaxC= 1.00D-01 BMatC= 6.65D-06 BMatP= 1.92D-05
 IDIUse=3 WtCom= 9.96D-01 WtEn= 4.36D-03
 Coeff-Com: -0.150D-03-0.354D-02 0.127D-03 0.109D-01-0.150D-01 0.873D-01
 Coeff-Com:  0.263D+00-0.151D+01 0.216D+01
 Coeff-En:   0.000D+00 0.000D+00 0.000D+00 0.000D+00 0.000D+00 0.000D+00
 Coeff-En:   0.000D+00 0.000D+00 0.100D+01
 Coeff:     -0.150D-03-0.353D-02 0.127D-03 0.108D-01-0.149D-01 0.869D-01
 Coeff:      0.262D+00-0.150D+01 0.216D+01
 Gap=     0.144 Goal=   None    Shift=    0.000
 RMSDP=9.73D-04 MaxDP=8.65D-03 DE=-4.20D-04 OVMax= 1.65D-02

 Cycle  10  Pass 1  IDiag  3:
 E= -1.72162072271669     Delta-E=       -0.000226138935 Rises=F Damp=F
 DIIS: error= 2.45D-04 at cycle  10 NSaved=  10.
 NSaved=10 IEnMin=10 EnMin= -1.72162072271669     IErMin=10 ErrMin= 2.45D-04
 ErrMax= 2.45D-04  0.00D+00 EMaxC= 1.00D-01 BMatC= 2.53D-06 BMatP= 6.65D-06
 IDIUse=3 WtCom= 9.98D-01 WtEn= 2.45D-03
 Coeff-Com:  0.999D-04-0.355D-03 0.784D-03 0.287D-03 0.106D-01-0.651D-01
 Coeff-Com: -0.138D+00 0.913D+00-0.177D+01 0.205D+01
 Coeff-En:   0.000D+00 0.000D+00 0.000D+00 0.000D+00 0.000D+00 0.000D+00
 Coeff-En:   0.000D+00 0.000D+00 0.000D+00 0.100D+01
 Coeff:      0.997D-04-0.354D-03 0.782D-03 0.287D-03 0.106D-01-0.650D-01
 Coeff:     -0.138D+00 0.911D+00-0.177D+01 0.205D+01
 Gap=     0.145 Goal=   None    Shift=    0.000
 RMSDP=7.36D-04 MaxDP=6.31D-03 DE=-2.26D-04 OVMax= 1.54D-02

 Cycle  11  Pass 1  IDiag  3:
 E= -1.72172810884251     Delta-E=       -0.000107386126 Rises=F Damp=F
 DIIS: error= 1.12D-04 at cycle  11 NSaved=  11.
 NSaved=11 IEnMin=11 EnMin= -1.72172810884251     IErMin=11 ErrMin= 1.12D-04
 ErrMax= 1.12D-04  0.00D+00 EMaxC= 1.00D-01 BMatC= 1.11D-06 BMatP= 2.53D-06
 IDIUse=3 WtCom= 9.99D-01 WtEn= 1.12D-03
 Coeff-Com: -0.228D-04 0.323D-03-0.318D-03-0.145D-02 0.184D-02 0.116D-01
 Coeff-Com:  0.359D-01-0.257D+00 0.614D+00-0.138D+01 0.197D+01
 Coeff-En:   0.000D+00 0.000D+00 0.000D+00 0.000D+00 0.000D+00 0.000D+00
 Coeff-En:   0.000D+00 0.000D+00 0.000D+00 0.000D+00 0.100D+01
 Coeff:     -0.228D-04 0.322D-03-0.317D-03-0.145D-02 0.184D-02 0.115D-01
 Coeff:      0.359D-01-0.257D+00 0.614D+00-0.138D+01 0.197D+01
 Gap=     0.146 Goal=   None    Shift=    0.000
 RMSDP=6.14D-04 MaxDP=4.84D-03 DE=-1.07D-04 OVMax= 1.55D-02

 Cycle  12  Pass 1  IDiag  3:
 E= -1.72178866066395     Delta-E=       -0.000060551821 Rises=F Damp=F
 DIIS: error= 9.14D-05 at cycle  12 NSaved=  12.
 NSaved=12 IEnMin=12 EnMin= -1.72178866066395     IErMin=12 ErrMin= 9.14D-05
 ErrMax= 9.14D-05  0.00D+00 EMaxC= 1.00D-01 BMatC= 6.38D-07 BMatP= 1.11D-06
 IDIUse=1 WtCom= 1.00D+00 WtEn= 0.00D+00
 Coeff-Com:  0.392D-04-0.294D-03-0.412D-03 0.322D-03-0.112D-02 0.202D-01
 Coeff-Com: -0.685D-01 0.102D+00-0.119D+00 0.483D+00-0.142D+01 0.200D+01
 Coeff:      0.392D-04-0.294D-03-0.412D-03 0.322D-03-0.112D-02 0.202D-01
 Coeff:     -0.685D-01 0.102D+00-0.119D+00 0.483D+00-0.142D+01 0.200D+01
 Gap=     0.146 Goal=   None    Shift=    0.000
 RMSDP=4.77D-04 MaxDP=4.42D-03 DE=-6.06D-05 OVMax= 1.36D-02

 Cycle  13  Pass 1  IDiag  3:
 E= -1.72182393505489     Delta-E=       -0.000035274391 Rises=F Damp=F
 DIIS: error= 7.08D-05 at cycle  13 NSaved=  13.
 NSaved=13 IEnMin=13 EnMin= -1.72182393505489     IErMin=13 ErrMin= 7.08D-05
 ErrMax= 7.08D-05  0.00D+00 EMaxC= 1.00D-01 BMatC= 3.88D-07 BMatP= 6.38D-07
 IDIUse=1 WtCom= 1.00D+00 WtEn= 0.00D+00
 Coeff-Com:  0.848D-04-0.891D-04-0.194D-03 0.119D-03-0.114D-02 0.990D-02
 Coeff-Com: -0.163D-01-0.923D-02 0.215D-01 0.312D-03 0.173D+00-0.102D+01
 Coeff-Com:  0.185D+01
 Coeff:      0.848D-04-0.891D-04-0.194D-03 0.119D-03-0.114D-02 0.990D-02
 Coeff:     -0.163D-01-0.923D-02 0.215D-01 0.312D-03 0.173D+00-0.102D+01
 Coeff:      0.185D+01
 Gap=     0.147 Goal=   None    Shift=    0.000
 RMSDP=3.90D-04 MaxDP=3.81D-03 DE=-3.53D-05 OVMax= 1.15D-02

 Cycle  14  Pass 1  IDiag  3:
 E= -1.72184614317678     Delta-E=       -0.000022208122 Rises=F Damp=F
 DIIS: error= 5.42D-05 at cycle  14 NSaved=  14.
 NSaved=14 IEnMin=14 EnMin= -1.72184614317678     IErMin=14 ErrMin= 5.42D-05
 ErrMax= 5.42D-05  0.00D+00 EMaxC= 1.00D-01 BMatC= 2.36D-07 BMatP= 3.88D-07
 IDIUse=1 WtCom= 1.00D+00 WtEn= 0.00D+00
 Coeff-Com:  0.333D-04 0.252D-04-0.926D-04-0.777D-03 0.142D-02-0.168D-06
 Coeff-Com: -0.660D-02 0.273D-01-0.600D-01 0.476D-01 0.125D+00-0.140D+00
 Coeff-Com: -0.106D+01 0.207D+01
 Coeff:      0.333D-04 0.252D-04-0.926D-04-0.777D-03 0.142D-02-0.168D-06
 Coeff:     -0.660D-02 0.273D-01-0.600D-01 0.476D-01 0.125D+00-0.140D+00
 Coeff:     -0.106D+01 0.207D+01
 Gap=     0.147 Goal=   None    Shift=    0.000
 RMSDP=4.12D-04 MaxDP=4.08D-03 DE=-2.22D-05 OVMax= 1.23D-02

 Cycle  15  Pass 1  IDiag  3:
 E= -1.72186290858554     Delta-E=       -0.000016765409 Rises=F Damp=F
 DIIS: error= 3.59D-05 at cycle  15 NSaved=  15.
 NSaved=15 IEnMin=15 EnMin= -1.72186290858554     IErMin=15 ErrMin= 3.59D-05
 ErrMax= 3.59D-05  0.00D+00 EMaxC= 1.00D-01 BMatC= 1.34D-07 BMatP= 2.36D-07
 IDIUse=1 WtCom= 1.00D+00 WtEn= 0.00D+00
 Coeff-Com:  0.495D-04-0.258D-04-0.457D-04-0.575D-03 0.318D-03 0.515D-02
 Coeff-Com: -0.158D-01 0.279D-01-0.480D-01 0.719D-01-0.427D-01 0.131D+00
 Coeff-Com: -0.350D+00-0.363D+00 0.159D+01
 Coeff:      0.495D-04-0.258D-04-0.457D-04-0.575D-03 0.318D-03 0.515D-02
 Coeff:     -0.158D-01 0.279D-01-0.480D-01 0.719D-01-0.427D-01 0.131D+00
 Coeff:     -0.350D+00-0.363D+00 0.159D+01
 Gap=     0.147 Goal=   None    Shift=    0.000
 RMSDP=2.93D-04 MaxDP=2.89D-03 DE=-1.68D-05 OVMax= 8.70D-03

 Cycle  16  Pass 1  IDiag  3:
 E= -1.72187060529677     Delta-E=       -0.000007696711 Rises=F Damp=F
 DIIS: error= 2.70D-05 at cycle  16 NSaved=  16.
 NSaved=16 IEnMin=16 EnMin= -1.72187060529677     IErMin=16 ErrMin= 2.70D-05
 ErrMax= 2.70D-05  0.00D+00 EMaxC= 1.00D-01 BMatC= 6.04D-08 BMatP= 1.34D-07
 IDIUse=1 WtCom= 1.00D+00 WtEn= 0.00D+00
 Coeff-Com:  0.378D-04-0.132D-03 0.386D-04-0.217D-03 0.130D-02-0.265D-02
 Coeff-Com:  0.101D-02 0.818D-02-0.155D-01-0.856D-03 0.135D-01 0.317D-01
 Coeff-Com: -0.462D-01-0.135D+00-0.475D+00 0.162D+01
 Coeff:      0.378D-04-0.132D-03 0.386D-04-0.217D-03 0.130D-02-0.265D-02
 Coeff:      0.101D-02 0.818D-02-0.155D-01-0.856D-03 0.135D-01 0.317D-01
 Coeff:     -0.462D-01-0.135D+00-0.475D+00 0.162D+01
 Gap=     0.147 Goal=   None    Shift=    0.000
 RMSDP=2.46D-04 MaxDP=2.40D-03 DE=-7.70D-06 OVMax= 7.23D-03

 Cycle  17  Pass 1  IDiag  3:
 E= -1.72187411402905     Delta-E=       -0.000003508732 Rises=F Damp=F
 DIIS: error= 1.96D-05 at cycle  17 NSaved=  17.
 NSaved=17 IEnMin=17 EnMin= -1.72187411402905     IErMin=17 ErrMin= 1.96D-05
 ErrMax= 1.96D-05  0.00D+00 EMaxC= 1.00D-01 BMatC= 3.18D-08 BMatP= 6.04D-08
 IDIUse=1 WtCom= 1.00D+00 WtEn= 0.00D+00
 Coeff-Com:  0.272D-04-0.104D-03 0.121D-03-0.159D-03 0.767D-03-0.170D-02
 Coeff-Com:  0.235D-02-0.251D-02 0.608D-02-0.783D-02-0.358D-02 0.134D-01
 Coeff-Com: -0.853D-02 0.167D+00-0.408D+00-0.905D-01 0.133D+01
 Coeff:      0.272D-04-0.104D-03 0.121D-03-0.159D-03 0.767D-03-0.170D-02
 Coeff:      0.235D-02-0.251D-02 0.608D-02-0.783D-02-0.358D-02 0.134D-01
 Coeff:     -0.853D-02 0.167D+00-0.408D+00-0.905D-01 0.133D+01
 Gap=     0.147 Goal=   None    Shift=    0.000
 RMSDP=9.40D-05 MaxDP=8.51D-04 DE=-3.51D-06 OVMax= 2.60D-03

 Cycle  18  Pass 1  IDiag  3:
 E= -1.72187496788570     Delta-E=       -0.000000853857 Rises=F Damp=F
 DIIS: error= 1.19D-05 at cycle  18 NSaved=  18.
 NSaved=18 IEnMin=18 EnMin= -1.72187496788570     IErMin=18 ErrMin= 1.19D-05
 ErrMax= 1.19D-05  0.00D+00 EMaxC= 1.00D-01 BMatC= 1.49D-08 BMatP= 3.18D-08
 IDIUse=1 WtCom= 1.00D+00 WtEn= 0.00D+00
 Coeff-Com: -0.186D-04 0.631D-04 0.156D-03-0.151D-03-0.394D-03-0.144D-02
 Coeff-Com:  0.678D-04 0.143D-01-0.235D-01 0.159D-01-0.132D-01 0.784D-02
 Coeff-Com:  0.161D-01-0.381D-01 0.160D+00-0.274D+00-0.476D+00 0.161D+01
 Coeff:     -0.186D-04 0.631D-04 0.156D-03-0.151D-03-0.394D-03-0.144D-02
 Coeff:      0.678D-04 0.143D-01-0.235D-01 0.159D-01-0.132D-01 0.784D-02
 Coeff:      0.161D-01-0.381D-01 0.160D+00-0.274D+00-0.476D+00 0.161D+01
 Gap=     0.147 Goal=   None    Shift=    0.000
 RMSDP=6.14D-05 MaxDP=5.10D-04 DE=-8.54D-07 OVMax= 1.59D-03

 Cycle  19  Pass 1  IDiag  3:
 E= -1.72187536976560     Delta-E=       -0.000000401880 Rises=F Damp=F
 DIIS: error= 8.38D-06 at cycle  19 NSaved=  19.
 NSaved=19 IEnMin=19 EnMin= -1.72187536976560     IErMin=19 ErrMin= 8.38D-06
 ErrMax= 8.38D-06  0.00D+00 EMaxC= 1.00D-01 BMatC= 7.90D-09 BMatP= 1.49D-08
 IDIUse=1 WtCom= 1.00D+00 WtEn= 0.00D+00
 Coeff-Com: -0.875D-05 0.274D-04 0.138D-03-0.316D-03 0.429D-03-0.120D-02
 Coeff-Com: -0.158D-02 0.970D-02-0.956D-02 0.500D-02-0.769D-02 0.225D-01
 Coeff-Com: -0.216D-01 0.406D-01-0.584D-01 0.567D-01 0.955D-01-0.104D+01
 Coeff-Com:  0.190D+01
 Coeff:     -0.875D-05 0.274D-04 0.138D-03-0.316D-03 0.429D-03-0.120D-02
 Coeff:     -0.158D-02 0.970D-02-0.956D-02 0.500D-02-0.769D-02 0.225D-01
 Coeff:     -0.216D-01 0.406D-01-0.584D-01 0.567D-01 0.955D-01-0.104D+01
 Coeff:      0.190D+01
 Gap=     0.147 Goal=   None    Shift=    0.000
 RMSDP=3.30D-05 MaxDP=2.42D-04 DE=-4.02D-07 OVMax= 5.83D-04

 Cycle  20  Pass 1  IDiag  3:
 E= -1.72187557575330     Delta-E=       -0.000000205988 Rises=F Damp=F
 DIIS: error= 5.99D-06 at cycle  20 NSaved=  20.
 NSaved=20 IEnMin=20 EnMin= -1.72187557575330     IErMin=20 ErrMin= 5.99D-06
 ErrMax= 5.99D-06  0.00D+00 EMaxC= 1.00D-01 BMatC= 4.60D-09 BMatP= 7.90D-09
 IDIUse=1 WtCom= 1.00D+00 WtEn= 0.00D+00
 Coeff-Com: -0.929D-05 0.106D-04 0.115D-03-0.876D-04 0.134D-03-0.179D-02
 Coeff-Com:  0.202D-02 0.514D-02-0.134D-01 0.149D-01-0.129D-01-0.231D-02
 Coeff-Com: -0.950D-02 0.129D-01-0.200D-02-0.169D-01 0.118D+00 0.470D-01
 Coeff-Com: -0.108D+01 0.194D+01
 Coeff:     -0.929D-05 0.106D-04 0.115D-03-0.876D-04 0.134D-03-0.179D-02
 Coeff:      0.202D-02 0.514D-02-0.134D-01 0.149D-01-0.129D-01-0.231D-02
 Coeff:     -0.950D-02 0.129D-01-0.200D-02-0.169D-01 0.118D+00 0.470D-01
 Coeff:     -0.108D+01 0.194D+01
 Gap=     0.147 Goal=   None    Shift=    0.000
 RMSDP=3.11D-05 MaxDP=2.03D-04 DE=-2.06D-07 OVMax= 5.98D-04

 Cycle  21  Pass 1  IDiag  3:
 E= -1.72187569117955     Delta-E=       -0.000000115426 Rises=F Damp=F
 DIIS: error= 3.80D-06 at cycle  21 NSaved=  20.
 NSaved=20 IEnMin=20 EnMin= -1.72187569117955     IErMin=20 ErrMin= 3.80D-06
 ErrMax= 3.80D-06  0.00D+00 EMaxC= 1.00D-01 BMatC= 1.63D-09 BMatP= 4.60D-09
 IDIUse=1 WtCom= 1.00D+00 WtEn= 0.00D+00
 Coeff-Com: -0.296D-05 0.657D-04-0.174D-03 0.305D-03-0.737D-04-0.793D-03
 Coeff-Com:  0.683D-03 0.283D-02-0.355D-02 0.218D-02 0.463D-02 0.867D-02
 Coeff-Com: -0.135D-01-0.230D-04 0.249D-02-0.584D-01 0.818D-01 0.450D-01
 Coeff-Com: -0.785D+00 0.171D+01
 Coeff:     -0.296D-05 0.657D-04-0.174D-03 0.305D-03-0.737D-04-0.793D-03
 Coeff:      0.683D-03 0.283D-02-0.355D-02 0.218D-02 0.463D-02 0.867D-02
 Coeff:     -0.135D-01-0.230D-04 0.249D-02-0.584D-01 0.818D-01 0.450D-01
 Coeff:     -0.785D+00 0.171D+01
 Gap=     0.147 Goal=   None    Shift=    0.000
 RMSDP=1.97D-05 MaxDP=1.59D-04 DE=-1.15D-07 OVMax= 3.98D-04

 Cycle  22  Pass 1  IDiag  3:
 E= -1.72187573582914     Delta-E=       -0.000000044650 Rises=F Damp=F
 DIIS: error= 3.44D-06 at cycle  22 NSaved=  20.
 NSaved=20 IEnMin=20 EnMin= -1.72187573582914     IErMin=20 ErrMin= 3.44D-06
 ErrMax= 3.44D-06  0.00D+00 EMaxC= 1.00D-01 BMatC= 9.99D-10 BMatP= 1.63D-09
 IDIUse=1 WtCom= 1.00D+00 WtEn= 0.00D+00
 Coeff-Com:  0.363D-04-0.230D-04-0.798D-05-0.586D-03 0.945D-03 0.127D-02
 Coeff-Com: -0.408D-02 0.426D-02-0.468D-02 0.135D-02 0.144D-02 0.123D-02
 Coeff-Com: -0.689D-02 0.258D-02 0.304D-01-0.123D+00 0.329D+00-0.481D+00
 Coeff-Com: -0.254D+00 0.150D+01
 Coeff:      0.363D-04-0.230D-04-0.798D-05-0.586D-03 0.945D-03 0.127D-02
 Coeff:     -0.408D-02 0.426D-02-0.468D-02 0.135D-02 0.144D-02 0.123D-02
 Coeff:     -0.689D-02 0.258D-02 0.304D-01-0.123D+00 0.329D+00-0.481D+00
 Coeff:     -0.254D+00 0.150D+01
 Gap=     0.147 Goal=   None    Shift=    0.000
 RMSDP=1.51D-05 MaxDP=1.09D-04 DE=-4.46D-08 OVMax= 3.05D-04

 Cycle  23  Pass 1  IDiag  3:
 E= -1.72187575201849     Delta-E=       -0.000000016189 Rises=F Damp=F
 DIIS: error= 1.62D-06 at cycle  23 NSaved=  20.
 NSaved=20 IEnMin=20 EnMin= -1.72187575201849     IErMin=20 ErrMin= 1.62D-06
 ErrMax= 1.62D-06  0.00D+00 EMaxC= 1.00D-01 BMatC= 2.30D-10 BMatP= 9.99D-10
 IDIUse=1 WtCom= 1.00D+00 WtEn= 0.00D+00
 Coeff-Com: -0.753D-05-0.791D-04 0.203D-03-0.175D-03 0.196D-03 0.337D-03
 Coeff-Com: -0.628D-03-0.527D-03 0.377D-02-0.604D-02 0.323D-02 0.686D-02
 Coeff-Com: -0.266D-02-0.156D-01 0.437D-01-0.171D+00 0.389D+00-0.265D+00
 Coeff-Com: -0.772D+00 0.179D+01
 Coeff:     -0.753D-05-0.791D-04 0.203D-03-0.175D-03 0.196D-03 0.337D-03
 Coeff:     -0.628D-03-0.527D-03 0.377D-02-0.604D-02 0.323D-02 0.686D-02
 Coeff:     -0.266D-02-0.156D-01 0.437D-01-0.171D+00 0.389D+00-0.265D+00
 Coeff:     -0.772D+00 0.179D+01
 Gap=     0.147 Goal=   None    Shift=    0.000
 RMSDP=6.71D-06 MaxDP=4.88D-05 DE=-1.62D-08 OVMax= 1.44D-04

 Cycle  24  Pass 1  IDiag  3:
 E= -1.72187575589049     Delta-E=       -0.000000003872 Rises=F Damp=F
 DIIS: error= 8.22D-07 at cycle  24 NSaved=  20.
 NSaved=20 IEnMin=20 EnMin= -1.72187575589049     IErMin=20 ErrMin= 8.22D-07
 ErrMax= 8.22D-07  0.00D+00 EMaxC= 1.00D-01 BMatC= 4.34D-11 BMatP= 2.30D-10
 IDIUse=1 WtCom= 1.00D+00 WtEn= 0.00D+00
 Coeff-Com:  0.231D-04 0.213D-04 0.202D-03-0.113D-02 0.131D-02-0.614D-03
 Coeff-Com:  0.103D-02-0.236D-02 0.366D-02-0.241D-02-0.386D-02 0.588D-02
 Coeff-Com:  0.113D-02-0.262D-01 0.969D-01-0.185D+00 0.234D+00 0.189D+00
 Coeff-Com: -0.119D+01 0.188D+01
 Coeff:      0.231D-04 0.213D-04 0.202D-03-0.113D-02 0.131D-02-0.614D-03
 Coeff:      0.103D-02-0.236D-02 0.366D-02-0.241D-02-0.386D-02 0.588D-02
 Coeff:      0.113D-02-0.262D-01 0.969D-01-0.185D+00 0.234D+00 0.189D+00
 Coeff:     -0.119D+01 0.188D+01
 Gap=     0.147 Goal=   None    Shift=    0.000
 RMSDP=1.81D-06 MaxDP=1.46D-05 DE=-3.87D-09 OVMax= 3.57D-05

 Cycle  25  Pass 1  IDiag  3:
 E= -1.72187575658018     Delta-E=       -0.000000000690 Rises=F Damp=F
 DIIS: error= 3.20D-07 at cycle  25 NSaved=  20.
 NSaved=20 IEnMin=20 EnMin= -1.72187575658018     IErMin=20 ErrMin= 3.20D-07
 ErrMax= 3.20D-07  0.00D+00 EMaxC= 1.00D-01 BMatC= 7.88D-12 BMatP= 4.34D-11
 IDIUse=1 WtCom= 1.00D+00 WtEn= 0.00D+00
 Coeff-Com: -0.633D-04-0.457D-04 0.705D-03-0.100D-02 0.448D-03-0.914D-03
 Coeff-Com:  0.197D-02-0.236D-02 0.101D-02 0.841D-03-0.244D-02 0.173D-02
 Coeff-Com:  0.677D-02-0.317D-01 0.605D-01-0.858D-01 0.189D-01 0.307D+00
 Coeff-Com: -0.992D+00 0.172D+01
 Coeff:     -0.633D-04-0.457D-04 0.705D-03-0.100D-02 0.448D-03-0.914D-03
 Coeff:      0.197D-02-0.236D-02 0.101D-02 0.841D-03-0.244D-02 0.173D-02
 Coeff:      0.677D-02-0.317D-01 0.605D-01-0.858D-01 0.189D-01 0.307D+00
 Coeff:     -0.992D+00 0.172D+01
 Gap=     0.147 Goal=   None    Shift=    0.000
 RMSDP=8.27D-07 MaxDP=7.24D-06 DE=-6.90D-10 OVMax= 1.29D-05

 Cycle  26  Pass 1  IDiag  3:
 E= -1.72187575675349     Delta-E=       -0.000000000173 Rises=F Damp=F
 DIIS: error= 1.57D-07 at cycle  26 NSaved=  20.
 NSaved=20 IEnMin=20 EnMin= -1.72187575675349     IErMin=20 ErrMin= 1.57D-07
 ErrMax= 1.57D-07  0.00D+00 EMaxC= 1.00D-01 BMatC= 2.06D-12 BMatP= 7.88D-12
 IDIUse=1 WtCom= 1.00D+00 WtEn= 0.00D+00
 Coeff-Com:  0.119D-03-0.424D-03 0.306D-03 0.298D-03-0.940D-05-0.936D-03
 Coeff-Com:  0.142D-02-0.419D-03-0.563D-03 0.167D-03 0.608D-03-0.310D-02
 Coeff-Com:  0.661D-02-0.122D-01 0.154D-01 0.572D-02-0.113D+00 0.502D+00
 Coeff-Com: -0.139D+01 0.198D+01
 Coeff:      0.119D-03-0.424D-03 0.306D-03 0.298D-03-0.940D-05-0.936D-03
 Coeff:      0.142D-02-0.419D-03-0.563D-03 0.167D-03 0.608D-03-0.310D-02
 Coeff:      0.661D-02-0.122D-01 0.154D-01 0.572D-02-0.113D+00 0.502D+00
 Coeff:     -0.139D+01 0.198D+01
 Gap=     0.147 Goal=   None    Shift=    0.000
 RMSDP=5.52D-07 MaxDP=5.76D-06 DE=-1.73D-10 OVMax= 1.06D-05

 Cycle  27  Pass 1  IDiag  3:
 E= -1.72187575681107     Delta-E=       -0.000000000058 Rises=F Damp=F
 DIIS: error= 8.27D-08 at cycle  27 NSaved=  20.
 NSaved=20 IEnMin=20 EnMin= -1.72187575681107     IErMin=20 ErrMin= 8.27D-08
 ErrMax= 8.27D-08  0.00D+00 EMaxC= 1.00D-01 BMatC= 6.92D-13 BMatP= 2.06D-12
 IDIUse=1 WtCom= 1.00D+00 WtEn= 0.00D+00
 Coeff-Com:  0.342D-04 0.560D-05-0.195D-03 0.204D-03 0.685D-04-0.114D-03
 Coeff-Com: -0.167D-04-0.413D-03 0.874D-03 0.323D-04-0.362D-02 0.105D-01
 Coeff-Com: -0.224D-01 0.286D-01-0.513D-02-0.613D-01 0.439D-01 0.120D+00
 Coeff-Com: -0.744D+00 0.163D+01
 Coeff:      0.342D-04 0.560D-05-0.195D-03 0.204D-03 0.685D-04-0.114D-03
 Coeff:     -0.167D-04-0.413D-03 0.874D-03 0.323D-04-0.362D-02 0.105D-01
 Coeff:     -0.224D-01 0.286D-01-0.513D-02-0.613D-01 0.439D-01 0.120D+00
 Coeff:     -0.744D+00 0.163D+01
 Gap=     0.147 Goal=   None    Shift=    0.000
 RMSDP=5.32D-07 MaxDP=5.32D-06 DE=-5.76D-11 OVMax= 1.08D-05

 Cycle  28  Pass 1  IDiag  3:
 E= -1.72187575683029     Delta-E=       -0.000000000019 Rises=F Damp=F
 DIIS: error= 4.12D-08 at cycle  28 NSaved=  20.
 NSaved=20 IEnMin=20 EnMin= -1.72187575683029     IErMin=20 ErrMin= 4.12D-08
 ErrMax= 4.12D-08  0.00D+00 EMaxC= 1.00D-01 BMatC= 1.13D-13 BMatP= 6.92D-13
 IDIUse=1 WtCom= 1.00D+00 WtEn= 0.00D+00
 Coeff-Com: -0.313D-04 0.115D-03-0.247D-03 0.254D-03-0.120D-03-0.906D-04
 Coeff-Com:  0.310D-03-0.298D-03-0.179D-03 0.746D-03-0.322D-02 0.718D-02
 Coeff-Com: -0.965D-02 0.462D-02 0.156D-01-0.526D-01 0.818D-01-0.396D-02
 Coeff-Com: -0.437D+00 0.140D+01
 Coeff:     -0.313D-04 0.115D-03-0.247D-03 0.254D-03-0.120D-03-0.906D-04
 Coeff:      0.310D-03-0.298D-03-0.179D-03 0.746D-03-0.322D-02 0.718D-02
 Coeff:     -0.965D-02 0.462D-02 0.156D-01-0.526D-01 0.818D-01-0.396D-02
 Coeff:     -0.437D+00 0.140D+01
 Gap=     0.147 Goal=   None    Shift=    0.000
 RMSDP=2.00D-07 MaxDP=1.95D-06 DE=-1.92D-11 OVMax= 4.27D-06

 Cycle  29  Pass 1  IDiag  3:
 E= -1.72187575683188     Delta-E=       -0.000000000002 Rises=F Damp=F
 DIIS: error= 2.36D-08 at cycle  29 NSaved=  20.
 NSaved=20 IEnMin=20 EnMin= -1.72187575683188     IErMin=20 ErrMin= 2.36D-08
 ErrMax= 2.36D-08  0.00D+00 EMaxC= 1.00D-01 BMatC= 3.32D-14 BMatP= 1.13D-13
 IDIUse=1 WtCom= 1.00D+00 WtEn= 0.00D+00
 Large coefficients: NSaved= 20 BigCof=    0.00 CofMax=   10.00 Det=-9.69D-15
 Inversion failed.  Reducing to 19 matrices.
 Large coefficients: NSaved= 19 BigCof=    0.00 CofMax=   10.00 Det=-9.93D-15
 Inversion failed.  Reducing to 18 matrices.
 Coeff-Com:  0.209D-04-0.354D-04 0.394D-04-0.912D-04 0.172D-03 0.487D-04
 Coeff-Com: -0.401D-03 0.997D-03-0.223D-02 0.351D-02 0.179D-02-0.947D-02
 Coeff-Com:  0.309D-01-0.590D-01 0.377D-01 0.174D+00-0.875D+00 0.170D+01
 Coeff:      0.209D-04-0.354D-04 0.394D-04-0.912D-04 0.172D-03 0.487D-04
 Coeff:     -0.401D-03 0.997D-03-0.223D-02 0.351D-02 0.179D-02-0.947D-02
 Coeff:      0.309D-01-0.590D-01 0.377D-01 0.174D+00-0.875D+00 0.170D+01
 Gap=     0.147 Goal=   None    Shift=    0.000
 RMSDP=4.17D-08 MaxDP=2.52D-07 DE=-1.59D-12 OVMax= 6.66D-07

 Cycle  30  Pass 1  IDiag  3:
 E= -1.72187575683205     Delta-E=       -0.000000000000 Rises=F Damp=F
 DIIS: error= 9.49D-09 at cycle  30 NSaved=  19.
 NSaved=19 IEnMin=19 EnMin= -1.72187575683205     IErMin=19 ErrMin= 9.49D-09
 ErrMax= 9.49D-09  0.00D+00 EMaxC= 1.00D-01 BMatC= 6.86D-15 BMatP= 3.32D-14
 IDIUse=1 WtCom= 1.00D+00 WtEn= 0.00D+00
 Large coefficients: NSaved= 19 BigCof=    0.00 CofMax=   10.00 Det=-2.44D-15
 Inversion failed.  Reducing to 18 matrices.
 Large coefficients: NSaved= 18 BigCof=    0.00 CofMax=   10.00 Det=-2.45D-15
 Inversion failed.  Reducing to 17 matrices.
 Large coefficients: NSaved= 17 BigCof=    0.00 CofMax=   10.00 Det=-2.45D-15
 Inversion failed.  Reducing to 16 matrices.
 Large coefficients: NSaved= 16 BigCof=    0.00 CofMax=   10.00 Det=-2.45D-15
 Inversion failed.  Reducing to 15 matrices.
 Coeff-Com:  0.396D-04 0.911D-05 0.144D-03-0.415D-03 0.522D-03-0.806D-03
 Coeff-Com: -0.272D-02 0.867D-02-0.188D-01 0.400D-01-0.339D-01-0.459D-01
 Coeff-Com:  0.263D+00-0.851D+00 0.164D+01
 Coeff:      0.396D-04 0.911D-05 0.144D-03-0.415D-03 0.522D-03-0.806D-03
 Coeff:     -0.272D-02 0.867D-02-0.188D-01 0.400D-01-0.339D-01-0.459D-01
 Coeff:      0.263D+00-0.851D+00 0.164D+01
 Gap=     0.147 Goal=   None    Shift=    0.000
 RMSDP=2.94D-08 MaxDP=1.96D-07 DE=-1.71D-13 OVMax= 6.08D-07

 Cycle  31  Pass 1  IDiag  3:
 E= -1.72187575683250     Delta-E=       -0.000000000000 Rises=F Damp=F
 DIIS: error= 3.44D-09 at cycle  31 NSaved=  16.
 NSaved=16 IEnMin=16 EnMin= -1.72187575683250     IErMin=16 ErrMin= 3.44D-09
 ErrMax= 3.44D-09  0.00D+00 EMaxC= 1.00D-01 BMatC= 1.10D-15 BMatP= 6.86D-15
 IDIUse=1 WtCom= 1.00D+00 WtEn= 0.00D+00
 Large coefficients: NSaved= 16 BigCof=    0.00 CofMax=   10.00 Det=-3.68D-16
 Inversion failed.  Reducing to 15 matrices.
 Coeff-Com: -0.247D-04-0.372D-05 0.125D-03 0.154D-03-0.511D-03 0.182D-02
 Coeff-Com: -0.365D-02 0.991D-02-0.254D-01 0.333D-01-0.171D-01-0.612D-01
 Coeff-Com:  0.343D+00-0.953D+00 0.167D+01
 Coeff:     -0.247D-04-0.372D-05 0.125D-03 0.154D-03-0.511D-03 0.182D-02
 Coeff:     -0.365D-02 0.991D-02-0.254D-01 0.333D-01-0.171D-01-0.612D-01
 Coeff:      0.343D+00-0.953D+00 0.167D+01
 Gap=     0.147 Goal=   None    Shift=    0.000
 RMSDP=1.83D-08 MaxDP=1.35D-07 DE=-4.55D-13 OVMax= 4.27D-07

 Cycle  32  Pass 1  IDiag  3:
 E= -1.72187575683239     Delta-E=        0.000000000000 Rises=F Damp=F
 DIIS: error= 1.75D-09 at cycle  32 NSaved=  16.
 NSaved=16 IEnMin=15 EnMin= -1.72187575683250     IErMin=16 ErrMin= 1.75D-09
 ErrMax= 1.75D-09  0.00D+00 EMaxC= 1.00D-01 BMatC= 2.35D-16 BMatP= 1.10D-15
 IDIUse=1 WtCom= 1.00D+00 WtEn= 0.00D+00
 Large coefficients: NSaved= 16 BigCof=    0.00 CofMax=   10.00 Det=-5.80D-17
 Inversion failed.  Reducing to 15 matrices.
 Coeff-Com:  0.538D-04-0.135D-03 0.122D-03-0.755D-04-0.828D-03 0.244D-02
 Coeff-Com: -0.527D-02 0.130D-01-0.176D-01 0.101D-01-0.330D-02-0.501D-01
 Coeff-Com:  0.308D+00-0.976D+00 0.172D+01
 Coeff:      0.538D-04-0.135D-03 0.122D-03-0.755D-04-0.828D-03 0.244D-02
 Coeff:     -0.527D-02 0.130D-01-0.176D-01 0.101D-01-0.330D-02-0.501D-01
 Coeff:      0.308D+00-0.976D+00 0.172D+01
 Gap=     0.147 Goal=   None    Shift=    0.000
 RMSDP=4.03D-09 MaxDP=2.99D-08 DE= 1.14D-13 OVMax= 6.77D-08

 Cycle  33  Pass 2  IDiag  1:
 SCF Done:  E(RPM6) =  -1.72187575683     A.U. after   33 cycles
            NFock= 32  Conv=0.40D-08     -V/T= 0.9826
 KE=-9.892145911117D+01 PE=-3.902592601429D+02 EE= 2.163549713137D+02
 Leave Link  502 at Fri Jan  7 12:00:55 2022, MaxMem=   402653184 cpu:             194.3 elap:              33.8
 (Enter /work/01114/jfonner/frontera/gaussian/16rC.01/g16/l601.exe)
 Copying SCF densities to generalized density rwf, IOpCl= 0 IROHF=0.

 **********************************************************************

            Population analysis using the SCF Density.

 **********************************************************************

 Alpha  occ. eigenvalues --   -1.75415  -1.66112  -1.65123  -1.56486  -1.50847
 Alpha  occ. eigenvalues --   -1.47509  -1.36746  -1.27227  -1.22359  -1.17233
 Alpha  occ. eigenvalues --   -1.12915  -1.11506  -1.09199  -1.05664  -1.02343
 Alpha  occ. eigenvalues --   -1.00760  -0.98306  -0.96554  -0.95055  -0.91350
 Alpha  occ. eigenvalues --   -0.88696  -0.85788  -0.80571  -0.79776
 Alpha virt. eigenvalues --   -0.65799  -0.56613  -0.53966  -0.51735  -0.49080
 Alpha virt. eigenvalues --   -0.47194  -0.46311  -0.45014  -0.40036  -0.38945
 Alpha virt. eigenvalues --   -0.37974  -0.37352  -0.36697  -0.35602  -0.34909
 Alpha virt. eigenvalues --   -0.32996  -0.27658  -0.26922  -0.24524  -0.08759
          Condensed to atoms (all electrons):
               1          2          3          4          5          6
     1  C    3.543337   0.000000   0.000000   0.000000   0.000000   0.000000
     2  O    0.000000   6.292156   0.000000   0.000000   0.000000   0.000000
     3  N    0.000000   0.000000   5.277519   0.000000   0.000000   0.000000
     4  C    0.000000   0.000000   0.000000   3.678695   0.000000   0.000000
     5  C    0.000000   0.000000   0.000000   0.000000   3.742390   0.000000
     6  O    0.000000   0.000000   0.000000   0.000000   0.000000   6.064817
     7  N    0.000000   0.000000   0.000000   0.000000   0.000000   0.000000
     8  C    0.000000   0.000000   0.000000   0.000000   0.000000   0.000000
     9  C    0.000000   0.000000   0.000000   0.000000   0.000000   0.000000
    10  C    0.000000   0.000000   0.000000   0.000000   0.000000   0.000000
    11  H    0.000000   0.000000   0.000000   0.000000   0.000000   0.000000
    12  H    0.000000   0.000000   0.000000   0.000000   0.000000   0.000000
    13  H    0.000000   0.000000   0.000000   0.000000   0.000000   0.000000
    14  H    0.000000   0.000000   0.000000   0.000000   0.000000   0.000000
               7          8          9         10         11         12
     1  C    0.000000   0.000000   0.000000   0.000000   0.000000   0.000000
     2  O    0.000000   0.000000   0.000000   0.000000   0.000000   0.000000
     3  N    0.000000   0.000000   0.000000   0.000000   0.000000   0.000000
     4  C    0.000000   0.000000   0.000000   0.000000   0.000000   0.000000
     5  C    0.000000   0.000000   0.000000   0.000000   0.000000   0.000000
     6  O    0.000000   0.000000   0.000000   0.000000   0.000000   0.000000
     7  N    5.050709   0.000000   0.000000   0.000000   0.000000   0.000000
     8  C    0.000000   3.550797   0.000000   0.000000   0.000000   0.000000
     9  C    0.000000   0.000000   4.459382   0.000000   0.000000   0.000000
    10  C    0.000000   0.000000   0.000000   2.972438   0.000000   0.000000
    11  H    0.000000   0.000000   0.000000   0.000000   0.956785   0.000000
    12  H    0.000000   0.000000   0.000000   0.000000   0.000000   1.452125
    13  H    0.000000   0.000000   0.000000   0.000000   0.000000   0.000000
    14  H    0.000000   0.000000   0.000000   0.000000   0.000000   0.000000
              13         14
     1  C    0.000000   0.000000
     2  O    0.000000   0.000000
     3  N    0.000000   0.000000
     4  C    0.000000   0.000000
     5  C    0.000000   0.000000
     6  O    0.000000   0.000000
     7  N    0.000000   0.000000
     8  C    0.000000   0.000000
     9  C    0.000000   0.000000
    10  C    0.000000   0.000000
    11  H    0.000000   0.000000
    12  H    0.000000   0.000000
    13  H    0.737570   0.000000
    14  H    0.000000   0.221280
 Mulliken charges:
               1
     1  C    0.456663
     2  O   -0.292156
     3  N   -0.277519
     4  C    0.321305
     5  C    0.257610
     6  O   -0.064817
     7  N   -0.050709
     8  C    0.449203
     9  C   -0.459382
    10  C    1.027562
    11  H    0.043215
    12  H   -0.452125
    13  H    0.262430
    14  H    0.778720
 Sum of Mulliken charges =   2.00000
 Mulliken charges with hydrogens summed into heavy atoms:
               1
     1  C    0.499878
     2  O   -0.292156
     3  N   -0.277519
     4  C    0.321305
     5  C    0.257610
     6  O   -0.064817
     7  N   -0.050709
     8  C    1.490353
     9  C   -0.911507
    10  C    1.027562
 Charge=              2.0000 electrons
 Dipole moment (field-independent basis, Debye):
    X=             -3.4951    Y=             -5.1693    Z=             60.5869  Tot=             60.9074
 N-N= 2.711038721836D+02 E-N=-3.902592601885D+02  KE=-9.892145911117D+01
 Leave Link  601 at Fri Jan  7 12:00:56 2022, MaxMem=   402653184 cpu:               2.1 elap:               0.7
 (Enter /work/01114/jfonner/frontera/gaussian/16rC.01/g16/l9999.exe)

 Test job not archived.
 1\1\GINC-C208-012\SP\RPM6\ZDO\C6H4N2O2(2+)\SA748948\07-Jan-2022\0\\#p 
 int=acc2e=12 pm6 charge nosymm\\Atom number=14\\2,1\C,0,-4.35699219,-0
 .6729987,2.58799322\O,0,-4.21199207,-1.86999463,2.49199032\N,0,-3.3810
 008,0.12499046,2.952998\C,0,-2.06200457,-0.39000497,3.27399921\C,0,-1.
 63600655,0.17499612,4.60000724\O,0,-1.74400817,1.35600031,4.86199097\N
 ,0,-1.09500047,-0.70000479,5.41500454\C,0,-0.57199533,-0.31100555,6.66
 899843\C,0,-0.99299921,-0.04500171,2.19700167\C,0,0.38999976,-0.487990
 13,2.64000498\H,0,-5.30551789,-0.20117924,2.43770884\H,0,-1.2695535,-0
 .48819548,1.26319387\H,0,0.42341808,-0.69380181,6.75571159\H,0,-1.1590
 2325,-0.7321969,7.45823608\\Version=ES64L-G16RevC.01\HF=-1.7218758\RMS
 D=4.029e-09\Dipole=6.3612271,-0.8997542,9.3424645\PG=C01 [X(C6H4N2O2)]
 \\@


 NOTHING RESEMBLES A NEW PHENOMENON AS MUCH AS A MISTAKE.

                               -- ENRICO FERMI (?)
 Job cpu time:       0 days  0 hours  4 minutes  9.6 seconds.
 Elapsed time:       0 days  0 hours  0 minutes 44.3 seconds.
 File lengths (MBytes):  RWF=      6 Int=      0 D2E=      0 Chk=      2 Scr=      1
 Normal termination of Gaussian 16 at Fri Jan  7 12:00:57 2022.
