 Entering Gaussian System, Link 0=g16
 Input=NCCONCCOCCCNCCOCCCNCCOCCNCCNNCCONCCOCCCNCCOCOCNCCOCOCNCCOCCCNCCOCO_5.gjf
 Output=NCCONCCOCCCNCCOCCCNCCOCCNCCNNCCONCCOCCCNCCOCOCNCCOCOCNCCOCCCNCCOCO_5.log
 Initial command:
 /work/01114/jfonner/frontera/gaussian/16rC.01/g16/l1.exe "/scratch1/08249/sa748948/lsqc/26989325/Gau-41085.inp" -scrdir="/scratch1/08249/sa748948/lsqc/26989325/"
 Entering Link 1 = /work/01114/jfonner/frontera/gaussian/16rC.01/g16/l1.exe PID=     41095.
  
 Copyright (c) 1988-2019, Gaussian, Inc.  All Rights Reserved.
  
 This is part of the Gaussian(R) 16 program.  It is based on
 the Gaussian(R) 09 system (copyright 2009, Gaussian, Inc.),
 the Gaussian(R) 03 system (copyright 2003, Gaussian, Inc.),
 the Gaussian(R) 98 system (copyright 1998, Gaussian, Inc.),
 the Gaussian(R) 94 system (copyright 1995, Gaussian, Inc.),
 the Gaussian 92(TM) system (copyright 1992, Gaussian, Inc.),
 the Gaussian 90(TM) system (copyright 1990, Gaussian, Inc.),
 the Gaussian 88(TM) system (copyright 1988, Gaussian, Inc.),
 the Gaussian 86(TM) system (copyright 1986, Carnegie Mellon
 University), and the Gaussian 82(TM) system (copyright 1983,
 Carnegie Mellon University). Gaussian is a federally registered
 trademark of Gaussian, Inc.
  
 This software contains proprietary and confidential information,
 including trade secrets, belonging to Gaussian, Inc.
  
 This software is provided under written license and may be
 used, copied, transmitted, or stored only in accord with that
 written license.
  
 The following legend is applicable only to US Government
 contracts under FAR:
  
                    RESTRICTED RIGHTS LEGEND
  
 Use, reproduction and disclosure by the US Government is
 subject to restrictions as set forth in subparagraphs (a)
 and (c) of the Commercial Computer Software - Restricted
 Rights clause in FAR 52.227-19.
  
 Gaussian, Inc.
 340 Quinnipiac St., Bldg. 40, Wallingford CT 06492
  
  
 ---------------------------------------------------------------
 Warning -- This program may not be used in any manner that
 competes with the business of Gaussian, Inc. or will provide
 assistance to any competitor of Gaussian, Inc.  The licensee
 of this program is prohibited from giving any competitor of
 Gaussian, Inc. access to this program.  By using this program,
 the user acknowledges that Gaussian, Inc. is engaged in the
 business of creating and licensing software in the field of
 computational chemistry and represents and warrants to the
 licensee that it is not a competitor of Gaussian, Inc. and that
 it will not use this program in any manner prohibited above.
 ---------------------------------------------------------------
  

 Cite this work as:
 Gaussian 16, Revision C.01,
 M. J. Frisch, G. W. Trucks, H. B. Schlegel, G. E. Scuseria, 
 M. A. Robb, J. R. Cheeseman, G. Scalmani, V. Barone, 
 G. A. Petersson, H. Nakatsuji, X. Li, M. Caricato, A. V. Marenich, 
 J. Bloino, B. G. Janesko, R. Gomperts, B. Mennucci, H. P. Hratchian, 
 J. V. Ortiz, A. F. Izmaylov, J. L. Sonnenberg, D. Williams-Young, 
 F. Ding, F. Lipparini, F. Egidi, J. Goings, B. Peng, A. Petrone, 
 T. Henderson, D. Ranasinghe, V. G. Zakrzewski, J. Gao, N. Rega, 
 G. Zheng, W. Liang, M. Hada, M. Ehara, K. Toyota, R. Fukuda, 
 J. Hasegawa, M. Ishida, T. Nakajima, Y. Honda, O. Kitao, H. Nakai, 
 T. Vreven, K. Throssell, J. A. Montgomery, Jr., J. E. Peralta, 
 F. Ogliaro, M. J. Bearpark, J. J. Heyd, E. N. Brothers, K. N. Kudin, 
 V. N. Staroverov, T. A. Keith, R. Kobayashi, J. Normand, 
 K. Raghavachari, A. P. Rendell, J. C. Burant, S. S. Iyengar, 
 J. Tomasi, M. Cossi, J. M. Millam, M. Klene, C. Adamo, R. Cammi, 
 J. W. Ochterski, R. L. Martin, K. Morokuma, O. Farkas, 
 J. B. Foresman, and D. J. Fox, Gaussian, Inc., Wallingford CT, 2019.
 
 ******************************************
 Gaussian 16:  ES64L-G16RevC.01  3-Jul-2019
                 7-Jan-2022 
 ******************************************
 %chk=NCCONCCOCCCNCCOCCCNCCOCCNCCNNCCONCCOCCCNCCOCOCNCCOCOCNCCOCCCNCCOCO_5.chk
 %nproc=56
 Will use up to   56 processors via shared memory.
 %mem=3gb
 ---------------------------------
 #p int=acc2e=12 pm6 charge nosymm
 ---------------------------------
 1/18=10,28=-2,38=1,125=101,172=1/1;
 2/12=2,15=1,17=6,18=5,40=1/2;
 3/5=2,25=1,27=12,41=3900000/1,2,3;
 4/35=1/1;
 5/5=2,35=1,38=5,87=12/2;
 6/7=2,8=2,9=2,10=2,28=1,87=12/1;
 99/5=1,9=1/99;
 Leave Link    1 at Fri Jan  7 12:00:13 2022, MaxMem=   402653184 cpu:               2.7 elap:               0.4
 (Enter /work/01114/jfonner/frontera/gaussian/16rC.01/g16/l101.exe)
 --------------
 Atom number=18
 --------------
 Symbolic Z-matrix:
 Charge =  4 Multiplicity = 1
 c                     3.91099   0.25802   8.22899 
 o                     4.064     1.478     8.228 
 n                     4.36399  -0.52699   9.18901 
 c                     5.067     0.02      10.32599 
 c                     4.271     0.81698   11.296 
 o                     4.35899   2.03299   11.36699 
 n                     3.49199   0.10401   12.07299 
 c                     2.58499   0.67699   13.085 
 c                     3.006     0.047     14.36101 
 o                     2.95799  -1.169     14.515 
 n                     3.481     0.887     15.26199 
 c                     4.163     0.39199   16.44199 
 c                     1.127     0.33      12.82699 
 c                     0.248     0.67499   14.03799 
 c                     0.67399   1.047     11.596 
 h                     3.39884  -0.23067   7.42663 
 h                     3.64026   0.79731   17.28304 
 h                     5.20409   0.63641   16.40582 
 
 ITRead=  0  0  0  0  0  0  0  0  0  0  0  0  0  0  0  0  0  0
 MicOpt= -1 -1 -1 -1 -1 -1 -1 -1 -1 -1 -1 -1 -1 -1 -1 -1 -1 -1
 NAtoms=     18 NQM=       18 NQMF=       0 NMMI=      0 NMMIF=      0
                NMic=       0 NMicF=      0.
                    Isotopes and Nuclear Properties:
 (Nuclear quadrupole moments (NQMom) in fm**2, nuclear magnetic moments (NMagM)
  in nuclear magnetons)

  Atom         1           2           3           4           5           6           7           8           9          10
 IAtWgt=          12          16          14          12          12          16          14          12          12          16
 AtmWgt=  12.0000000  15.9949146  14.0030740  12.0000000  12.0000000  15.9949146  14.0030740  12.0000000  12.0000000  15.9949146
 NucSpn=           0           0           2           0           0           0           2           0           0           0
 AtZEff=  -0.0000000  -0.0000000  -0.0000000  -0.0000000  -0.0000000  -0.0000000  -0.0000000  -0.0000000  -0.0000000  -0.0000000
 NQMom=    0.0000000   0.0000000   2.0440000   0.0000000   0.0000000   0.0000000   2.0440000   0.0000000   0.0000000   0.0000000
 NMagM=    0.0000000   0.0000000   0.4037610   0.0000000   0.0000000   0.0000000   0.4037610   0.0000000   0.0000000   0.0000000
 AtZNuc=   6.0000000   8.0000000   7.0000000   6.0000000   6.0000000   8.0000000   7.0000000   6.0000000   6.0000000   8.0000000

  Atom        11          12          13          14          15          16          17          18
 IAtWgt=          14          12          12          12          12           1           1           1
 AtmWgt=  14.0030740  12.0000000  12.0000000  12.0000000  12.0000000   1.0078250   1.0078250   1.0078250
 NucSpn=           2           0           0           0           0           1           1           1
 AtZEff=  -0.0000000  -0.0000000  -0.0000000  -0.0000000  -0.0000000  -0.0000000  -0.0000000  -0.0000000
 NQMom=    2.0440000   0.0000000   0.0000000   0.0000000   0.0000000   0.0000000   0.0000000   0.0000000
 NMagM=    0.4037610   0.0000000   0.0000000   0.0000000   0.0000000   2.7928460   2.7928460   2.7928460
 AtZNuc=   7.0000000   6.0000000   6.0000000   6.0000000   6.0000000   1.0000000   1.0000000   1.0000000
 Background charge distribution read from input stream:
 Point Charges:
 XYZ=   -6.8150   -0.6680    1.6070 Q=    0.1840 A=    0.0000 R=    0.0000 C=    0.0000
 XYZ=   -5.7140    0.0020    2.3730 Q=    0.1690 A=    0.0000 R=    0.0000 C=    0.0000
 XYZ=   -4.3570   -0.6730    2.5880 Q=    0.1957 A=    0.0000 R=    0.0000 C=    0.0000
 XYZ=   -4.2120   -1.8700    2.4920 Q=   -0.4612 A=    0.0000 R=    0.0000 C=    0.0000
 XYZ=   -3.3810    0.1250    2.9530 Q=   -0.3003 A=    0.0000 R=    0.0000 C=    0.0000
 XYZ=   -2.0620   -0.3900    3.2740 Q=    0.2639 A=    0.0000 R=    0.0000 C=    0.0000
 XYZ=   -1.6360    0.1750    4.6000 Q=    0.1489 A=    0.0000 R=    0.0000 C=    0.0000
 XYZ=   -1.7440    1.3560    4.8620 Q=   -0.3095 A=    0.0000 R=    0.0000 C=    0.0000
 XYZ=   -0.9930   -0.0450    2.1970 Q=   -1.2213 A=    0.0000 R=    0.0000 C=    0.0000
 XYZ=    0.3900   -0.4880    2.6400 Q=    0.9359 A=    0.0000 R=    0.0000 C=    0.0000
 XYZ=   -1.3780   -0.6620    0.8970 Q=    0.8742 A=    0.0000 R=    0.0000 C=    0.0000
 XYZ=   -1.0950   -0.7000    5.4150 Q=   -0.4278 A=    0.0000 R=    0.0000 C=    0.0000
 XYZ=   -0.5720   -0.3110    6.6690 Q=    0.2444 A=    0.0000 R=    0.0000 C=    0.0000
 XYZ=    0.8400   -0.8540    6.7920 Q=    0.2936 A=    0.0000 R=    0.0000 C=    0.0000
 XYZ=    1.0270   -2.0220    6.7200 Q=   -0.4614 A=    0.0000 R=    0.0000 C=    0.0000
 XYZ=   -1.4110   -0.9130    7.7970 Q=   -1.2094 A=    0.0000 R=    0.0000 C=    0.0000
 XYZ=   -0.7270   -0.6450    9.1230 Q=    0.9838 A=    0.0000 R=    0.0000 C=    0.0000
 XYZ=   -2.8000   -0.3490    7.7890 Q=    0.9737 A=    0.0000 R=    0.0000 C=    0.0000
 XYZ=    1.8100    0.0020    7.0230 Q=   -0.6094 A=    0.0000 R=    0.0000 C=    0.0000
 XYZ=    3.1910   -0.4290    7.1010 Q=   -0.0383 A=    0.0000 R=    0.0000 C=    0.0000
 XYZ=    3.8710   -0.1030    5.7480 Q=    0.4467 A=    0.0000 R=    0.0000 C=    0.0000
 XYZ=    5.2470   -0.6430    5.5810 Q=   -0.4177 A=    0.0000 R=    0.0000 C=    0.0000
 XYZ=    5.8610   -0.6890    4.3530 Q=   -0.2968 A=    0.0000 R=    0.0000 C=    0.0000
 XYZ=    6.1080   -1.1970    6.4480 Q=    0.2630 A=    0.0000 R=    0.0000 C=    0.0000
 XYZ=    7.0590   -1.2270    4.4820 Q=    0.6103 A=    0.0000 R=    0.0000 C=    0.0000
 XYZ=    7.2390   -1.5230    5.7510 Q=   -0.3347 A=    0.0000 R=    0.0000 C=    0.0000
 XYZ=    3.4240    0.9650   17.6310 Q=    0.3166 A=    0.0000 R=    0.0000 C=    0.0000
 XYZ=    3.1360    2.1100   17.6120 Q=   -0.5694 A=    0.0000 R=    0.0000 C=    0.0000
 XYZ=    5.6880    0.7500   16.3890 Q=   -0.3175 A=    0.0000 R=    0.0000 C=    0.0000
 XYZ=    6.2640    0.1300   15.2360 Q=   -0.3082 A=    0.0000 R=    0.0000 C=    0.0000
 XYZ=    6.4200    0.2100   17.5690 Q=    0.9463 A=    0.0000 R=    0.0000 C=    0.0000
 XYZ=    3.1730    0.1290   18.6470 Q=   -0.5421 A=    0.0000 R=    0.0000 C=    0.0000
 XYZ=    2.5590    0.5160   19.9030 Q=    0.0236 A=    0.0000 R=    0.0000 C=    0.0000
 XYZ=    3.3500   -0.1220   21.0140 Q=    0.1847 A=    0.0000 R=    0.0000 C=    0.0000
 XYZ=    3.3660   -1.3390   21.1400 Q=   -0.4163 A=    0.0000 R=    0.0000 C=    0.0000
 XYZ=    1.1380   -0.0210   19.9830 Q=   -0.2907 A=    0.0000 R=    0.0000 C=    0.0000
 XYZ=    0.3930    0.3940   18.8240 Q=   -0.3415 A=    0.0000 R=    0.0000 C=    0.0000
 XYZ=    0.4860    0.5010   21.1670 Q=    0.7765 A=    0.0000 R=    0.0000 C=    0.0000
 XYZ=    4.0670    0.6880   21.7680 Q=   -0.6191 A=    0.0000 R=    0.0000 C=    0.0000
 XYZ=    4.8880    0.2050   22.8510 Q=    0.2833 A=    0.0000 R=    0.0000 C=    0.0000
 XYZ=    4.3500    0.7690   24.1740 Q=    0.1730 A=    0.0000 R=    0.0000 C=    0.0000
 XYZ=    4.1610    1.9810   24.2690 Q=   -0.2861 A=    0.0000 R=    0.0000 C=    0.0000
 XYZ=    6.3620    0.6140   22.6520 Q=   -1.1933 A=    0.0000 R=    0.0000 C=    0.0000
 XYZ=    7.1520    0.2970   23.8740 Q=    0.8585 A=    0.0000 R=    0.0000 C=    0.0000
 XYZ=    6.9530   -0.1210   21.4550 Q=    0.9590 A=    0.0000 R=    0.0000 C=    0.0000
 XYZ=    4.0650   -0.1200   25.1510 Q=   -0.4907 A=    0.0000 R=    0.0000 C=    0.0000
 XYZ=    3.7200    0.3130   26.5150 Q=   -0.3576 A=    0.0000 R=    0.0000 C=    0.0000
 XYZ=    4.9410    0.1400   27.4200 Q=    0.0549 A=    0.0000 R=    0.0000 C=    0.0000
 XYZ=    5.7140   -0.8090   27.2870 Q=   -0.0565 A=    0.0000 R=    0.0000 C=    0.0000
 XYZ=    2.4990   -0.4220   27.0620 Q=    1.1023 A=    0.0000 R=    0.0000 C=    0.0000
 XYZ=    5.2500    0.9550   28.2940 Q=    0.3115 A=    0.0000 R=    0.0000 C=    0.0000
 Pt Chg Charge=              0.7006 electrons
 Pt Chg Dipole moment (Debye):
    X=             10.6095    Y=             -8.5625    Z=             72.0612  Tot=             73.3396
 Pt Chg Quadrupole moment (Debye-Ang):
   XX=            302.4225   YY=            -37.2210   ZZ=           2478.1313
   XY=            -43.2293   XZ=            437.4181   YZ=           -159.1379
 Pt Chg Traceless Quadrupole moment (Debye-Ang):
   XX=           -612.0217   YY=           -951.6653   ZZ=           1563.6870
   XY=            -43.2293   XZ=            437.4181   YZ=           -159.1379
 Pt Chg Octapole moment (Debye-Ang**2):
  XXX=           1799.2086  YYY=             -2.6466  ZZZ=          76528.1421  XYY=            -43.7978
  XXY=           -176.6428  XXZ=           5376.8733  XZZ=          12888.4510  YZZ=          -3538.8690
  YYZ=           -491.5609  XYZ=           -734.3546
 Pt Chg Hexadecapole moment (Debye-Ang**3):
 XXXX=          19997.4297 YYYY=           -151.2983 ZZZZ=        2266833.4694 XXXY=          -1046.3048
 XXXZ=          43504.2850 YYYX=           -152.9482 YYYZ=           -442.5760 ZZZX=         357510.7210
 ZZZY=         -77096.5967 XXYY=           -384.0681 XXZZ=         121514.7313 YYZZ=          -8242.4915
 XXYZ=          -3058.8317 YYXZ=          -1441.6826 ZZXY=         -14411.4267
 Leave Link  101 at Fri Jan  7 12:00:14 2022, MaxMem=   402653184 cpu:               7.1 elap:               1.3
 (Enter /work/01114/jfonner/frontera/gaussian/16rC.01/g16/l202.exe)
                          Input orientation:                          
 ---------------------------------------------------------------------
 Center     Atomic      Atomic             Coordinates (Angstroms)
 Number     Number       Type             X           Y           Z
 ---------------------------------------------------------------------
      1          6           0        3.910993    0.258017    8.228992
      2          8           0        4.063997    1.477998    8.227997
      3          7           0        4.363991   -0.526991    9.189008
      4          6           0        5.066996    0.019997   10.325992
      5          6           0        4.271002    0.816983   11.295996
      6          8           0        4.358988    2.032994   11.366992
      7          7           0        3.491993    0.104011   12.072989
      8          6           0        2.584986    0.676989   13.085005
      9          6           0        3.005998    0.046997   14.361015
     10          8           0        2.957993   -1.169004   14.515002
     11          7           0        3.481002    0.887001   15.261988
     12          6           0        4.163003    0.391994   16.441992
     13          6           0        1.127000    0.329997   12.826995
     14          6           0        0.247996    0.674994   14.037988
     15          6           0        0.673990    1.047001   11.596005
     16          1           0        3.398845   -0.230667    7.426625
     17          1           0        3.640262    0.797306   17.283041
     18          1           0        5.204086    0.636407   16.405823
 ---------------------------------------------------------------------
                    Distance matrix (angstroms):
                    1          2          3          4          5
     1  C    0.000000
     2  O    1.229538   0.000000
     3  N    1.320256   2.243551   0.000000
     4  C    2.406327   2.744697   1.444350   0.000000
     5  C    3.138242   3.145220   2.500862   1.486506   0.000000
     6  O    3.632944   3.201301   3.361125   2.374261   1.221256
     7  N    3.869831   4.122983   3.078294   2.353655   1.311069
     8  C    5.051207   5.140001   4.448957   3.768841   2.462275
     9  C    6.202035   6.386003   5.378035   4.530988   3.404035
    10  O    6.516020   6.910593   5.545739   4.838328   4.003765
    11  N    7.074146   7.082809   6.297629   5.256532   4.044514
    12  C    8.217957   8.286068   7.313734   6.193629   5.164644
    13  C    5.375633   5.576257   4.944440   4.677038   3.530703
    14  C    6.880105   6.997333   6.472927   6.118063   4.870652
    15  C    4.736819   4.798060   4.678375   4.686808   3.616823
    16  H    1.070000   2.001040   2.031085   3.354384   4.102470
    17  H    9.074135   9.090474   8.233524   7.144250   6.020210
    18  H    8.287089   8.299694   7.358103   6.112536   5.197460
                    6          7          8          9         10
     6  O    0.000000
     7  N    2.229594   0.000000
     8  C    2.817339   1.474836   0.000000
     9  C    3.839133   2.339766   1.484029   0.000000
    10  O    4.703780   2.805201   2.364682   1.226652   0.000000
    11  N    4.153932   3.283734   2.363515   1.320224   2.249152
    12  C    5.337314   4.429602   3.720312   2.405858   2.757182
    13  C    3.934152   2.492546   1.520756   2.442118   2.906701
    14  C    5.087105   3.835460   2.523827   2.846980   3.312394
    15  C    3.821497   3.009632   2.450702   3.752806   4.318321
    16  H    4.644623   4.659332   5.788218   6.951056   7.163792
    17  H    6.086307   5.258069   4.330311   3.082774   3.463222
    18  H    5.296647   4.689154   4.229558   3.059451   3.446687
                   11         12         13         14         15
    11  N    0.000000
    12  C    1.450023   0.000000
    13  C    3.432313   4.721161   0.000000
    14  C    3.463444   4.602890   1.535635   0.000000
    15  C    4.619994   6.007149   1.494874   2.506620   0.000000
    16  H    7.915102   9.069095   5.885543   7.379579   5.142080
    17  H    2.029302   1.070000   5.137238   4.696041   6.418996
    18  H    2.083309   1.070000   5.433648   5.492809   6.620024
                   16         17         18
    16  H    0.000000
    17  H    9.912817   0.000000
    18  H    9.199821   1.800262   0.000000
 Symmetry turned off by external request.
 Stoichiometry    C9H3N3O3(4+)
 Framework group  C1[X(C9H3N3O3)]
 Deg. of freedom    48
 Full point group                 C1      NOp   1
 Rotational constants (GHZ):           1.1423780           0.3543922           0.3115685
 Leave Link  202 at Fri Jan  7 12:00:15 2022, MaxMem=   402653184 cpu:               2.8 elap:               0.5
 (Enter /work/01114/jfonner/frontera/gaussian/16rC.01/g16/l301.exe)
 Standard basis: VSTO-6G (5D, 7F)
 Ernie: Thresh=  0.10000D-02 Tol=  0.10000D-05 Strict=F.
  NNHCO=     0 NNPyr=     0 NCTC=     0               EPep=         0.000000000
    EC=       365.769434301  ECS=         4.309481255   EG=         0.413712557
   EHC=         0.001495660  EAt=       -90.285410999  AtH=         3.525035224
 EPDDG=         0.000000000  ECC=       370.494123774 EAtT=        93.810446223
    63 basis functions,   378 primitive gaussians,    63 cartesian basis functions
    34 alpha electrons       34 beta electrons
       nuclear repulsion energy       464.3045699968 Hartrees.
 IExCor=    0 DFT=F Ex=HF Corr=None ExCW=0 ScaHFX=  1.000000
 ScaDFX=  1.000000  1.000000  1.000000  1.000000 ScalE2=  1.000000  1.000000
 IRadAn=      5 IRanWt=     -1 IRanGd=            0 ICorTp=0 IEmpDi=  4
 Integral buffers will be    131072 words long.
 Regular integral format.
 Two-electron integral symmetry is turned off.
 Background charge distribution read from rwf.
 PtFMM for NChg=        69 BoxLen=    40.00 Levels= 1 LMax=20 SMax=    51.8 ICnFMM=     1:
 Self energy of the charges =        -3.0613800859 a.u.
 MM   energy of the charges =         0.0000000000 a.u.
 Nuclei-charges interaction =        -2.5331895444 a.u.
 Nuclear repulsion after external point charges =      458.7100003665 Hartrees.
 Leave Link  301 at Fri Jan  7 12:00:16 2022, MaxMem=   402653184 cpu:               4.8 elap:               0.8
 (Enter /work/01114/jfonner/frontera/gaussian/16rC.01/g16/l302.exe)
 Do NDO integrals.
 NPDir=0 NMtPBC=     1 NCelOv=     1 NCel=       1 NClECP=     1 NCelD=      1
         NCelK=      1 NCelE2=     1 NClLst=     1 CellRange=     0.0.
 One-electron integrals computed using PRISM.
 NBasis=    63 RedAO= F EigKep=  0.00D+00  NBF=    63
 NBsUse=    63 1.00D-04 EigRej=  0.00D+00 NBFU=    63
 Leave Link  302 at Fri Jan  7 12:00:20 2022, MaxMem=   402653184 cpu:              24.8 elap:               4.3
 (Enter /work/01114/jfonner/frontera/gaussian/16rC.01/g16/l303.exe)
 DipDrv:  MaxL=1.
 Leave Link  303 at Fri Jan  7 12:00:21 2022, MaxMem=   402653184 cpu:               5.0 elap:               1.0
 (Enter /work/01114/jfonner/frontera/gaussian/16rC.01/g16/l401.exe)
 Simple Huckel Guess.
 JPrj=0 DoOrth=F DoCkMO=F.
 Leave Link  401 at Fri Jan  7 12:00:24 2022, MaxMem=   402653184 cpu:              12.1 elap:               2.3
 (Enter /work/01114/jfonner/frontera/gaussian/16rC.01/g16/l502.exe)
 Keep J ints in memory in canonical form, NReq=871719.
 FoFCou: FMM=F IPFlag=           0 FMFlag=           0 FMFlg1=           0
         NFxFlg=           0 DoJE=F BraDBF=F KetDBF=F FulRan=T
         wScrn=  0.000000 ICntrl=       600 IOpCl=  2 I1Cent=           0 NGrid=           0
         NMat0=    1 NMatS0=    153 NMatT0=    0 NMatD0=    1 NMtDS0=    0 NMtDT0=    0
 Symmetry not used in FoFCou.
 Two-electron integral symmetry not used.
 Closed shell SCF:
 Using DIIS extrapolation, IDIIS=  1040.
 Overlap will be assumed to be unity.
 NGot=   402653184 LenX=   402569644 LenY=   402565234
 Requested convergence on RMS density matrix=1.00D-08 within 128 cycles.
 Requested convergence on MAX density matrix=1.00D-06.
 Requested convergence on             energy=1.00D-06.
 No special actions if energy rises.

 Cycle   1  Pass 1  IDiag  1:
 E= 0.945884820203389    
 DIIS: error= 4.30D-02 at cycle   1 NSaved=   1.
 NSaved= 1 IEnMin= 1 EnMin= 0.945884820203389     IErMin= 1 ErrMin= 4.30D-02
 ErrMax= 4.30D-02  0.00D+00 EMaxC= 1.00D-01 BMatC= 2.63D-01 BMatP= 2.63D-01
 IDIUse=3 WtCom= 5.70D-01 WtEn= 4.30D-01
 Coeff-Com:  0.100D+01
 Coeff-En:   0.100D+01
 Coeff:      0.100D+01
 GapD=    2.000 DampG=2.000 DampE=0.500 DampFc=1.0000 IDamp=-1.
 RMSDP=3.41D-02 MaxDP=6.24D-01              OVMax= 0.00D+00

 Cycle   2  Pass 1  IDiag  1:
 E= 0.886651335315037     Delta-E=       -0.059233484888 Rises=F Damp=F
 DIIS: error= 5.93D-02 at cycle   2 NSaved=   2.
 NSaved= 2 IEnMin= 2 EnMin= 0.886651335315037     IErMin= 1 ErrMin= 4.30D-02
 ErrMax= 5.93D-02  0.00D+00 EMaxC= 1.00D-01 BMatC= 3.42D-01 BMatP= 2.63D-01
 IDIUse=2 WtCom= 0.00D+00 WtEn= 1.00D+00
 Coeff-En:   0.475D+00 0.525D+00
 Coeff:      0.475D+00 0.525D+00
 RMSDP=2.72D-02 MaxDP=5.97D-01 DE=-5.92D-02 OVMax= 0.00D+00

 Cycle   3  Pass 1  IDiag  1:
 E=-0.150134805368396     Delta-E=       -1.036786140683 Rises=F Damp=F
 DIIS: error= 1.80D-02 at cycle   3 NSaved=   3.
 NSaved= 3 IEnMin= 3 EnMin=-0.150134805368396     IErMin= 3 ErrMin= 1.80D-02
 ErrMax= 1.80D-02  0.00D+00 EMaxC= 1.00D-01 BMatC= 4.81D-02 BMatP= 2.63D-01
 IDIUse=3 WtCom= 8.20D-01 WtEn= 1.80D-01
 Coeff-Com: -0.196D+00 0.170D+00 0.103D+01
 Coeff-En:   0.000D+00 0.644D-01 0.936D+00
 Coeff:     -0.160D+00 0.151D+00 0.101D+01
 RMSDP=2.39D-02 MaxDP=5.56D-01 DE=-1.04D+00 OVMax= 0.00D+00

 Cycle   4  Pass 1  IDiag  3:
 E=-0.498735706115099E-01 Delta-E=        0.100261234757 Rises=F Damp=F
 DIIS: error= 2.17D-02 at cycle   4 NSaved=   4.
 NSaved= 4 IEnMin= 3 EnMin=-0.150134805368396     IErMin= 3 ErrMin= 1.80D-02
 ErrMax= 2.17D-02  0.00D+00 EMaxC= 1.00D-01 BMatC= 3.75D-02 BMatP= 4.81D-02
 IDIUse=3 WtCom= 7.83D-01 WtEn= 2.17D-01
 Coeff-Com: -0.130D+00-0.342D-01 0.605D+00 0.559D+00
 Coeff-En:   0.000D+00 0.000D+00 0.602D+00 0.398D+00
 Coeff:     -0.102D+00-0.268D-01 0.605D+00 0.524D+00
 Gap=    -0.079 Goal=   None    Shift=    0.000
 RMSDP=2.27D-02 MaxDP=5.33D-01 DE= 1.00D-01 OVMax= 0.00D+00

 Cycle   5  Pass 1  IDiag  1:
 E=-0.314302709358685     Delta-E=       -0.264429138747 Rises=F Damp=F
 DIIS: error= 8.64D-03 at cycle   5 NSaved=   5.
 NSaved= 5 IEnMin= 5 EnMin=-0.314302709358685     IErMin= 5 ErrMin= 8.64D-03
 ErrMax= 8.64D-03  0.00D+00 EMaxC= 1.00D-01 BMatC= 1.30D-02 BMatP= 3.75D-02
 IDIUse=3 WtCom= 9.14D-01 WtEn= 8.64D-02
 Coeff-Com:  0.468D-01-0.423D-01-0.190D+00 0.386D+00 0.800D+00
 Coeff-En:   0.000D+00 0.000D+00 0.000D+00 0.224D+00 0.776D+00
 Coeff:      0.427D-01-0.387D-01-0.174D+00 0.372D+00 0.798D+00
 RMSDP=4.05D-03 MaxDP=4.49D-02 DE=-2.64D-01 OVMax= 0.00D+00

 Cycle   6  Pass 1  IDiag  3:
 E=-0.352099471652821     Delta-E=       -0.037796762294 Rises=F Damp=F
 DIIS: error= 6.12D-03 at cycle   6 NSaved=   6.
 NSaved= 6 IEnMin= 6 EnMin=-0.352099471652821     IErMin= 6 ErrMin= 6.12D-03
 ErrMax= 6.12D-03  0.00D+00 EMaxC= 1.00D-01 BMatC= 6.45D-03 BMatP= 1.30D-02
 IDIUse=3 WtCom= 9.39D-01 WtEn= 6.12D-02
 Coeff-Com: -0.132D-01-0.161D-01 0.697D-01 0.229D+00-0.806D+00 0.154D+01
 Coeff-En:   0.000D+00 0.000D+00 0.000D+00 0.137D+00 0.000D+00 0.863D+00
 Coeff:     -0.124D-01-0.151D-01 0.654D-01 0.224D+00-0.756D+00 0.150D+01
 Gap=     0.039 Goal=   None    Shift=    0.000
 RMSDP=3.74D-03 MaxDP=4.90D-02 DE=-3.78D-02 OVMax= 7.94D-02

 Cycle   7  Pass 1  IDiag  3:
 E=-0.377691862307245     Delta-E=       -0.025592390654 Rises=F Damp=F
 DIIS: error= 3.91D-03 at cycle   7 NSaved=   7.
 NSaved= 7 IEnMin= 7 EnMin=-0.377691862307245     IErMin= 7 ErrMin= 3.91D-03
 ErrMax= 3.91D-03  0.00D+00 EMaxC= 1.00D-01 BMatC= 2.45D-03 BMatP= 6.45D-03
 IDIUse=3 WtCom= 9.61D-01 WtEn= 3.91D-02
 Coeff-Com: -0.930D-02-0.616D-02 0.462D-01 0.123D+00 0.445D-01-0.815D+00
 Coeff-Com:  0.162D+01
 Coeff-En:   0.000D+00 0.000D+00 0.000D+00 0.138D-01 0.000D+00 0.000D+00
 Coeff-En:   0.986D+00
 Coeff:     -0.894D-02-0.592D-02 0.444D-01 0.119D+00 0.427D-01-0.784D+00
 Coeff:      0.159D+01
 Gap=     0.039 Goal=   None    Shift=    0.000
 RMSDP=3.58D-03 MaxDP=4.39D-02 DE=-2.56D-02 OVMax= 1.12D-01

 Cycle   8  Pass 1  IDiag  3:
 E=-0.392535007390904     Delta-E=       -0.014843145084 Rises=F Damp=F
 DIIS: error= 2.43D-03 at cycle   8 NSaved=   8.
 NSaved= 8 IEnMin= 8 EnMin=-0.392535007390904     IErMin= 8 ErrMin= 2.43D-03
 ErrMax= 2.43D-03  0.00D+00 EMaxC= 1.00D-01 BMatC= 6.56D-04 BMatP= 2.45D-03
 IDIUse=3 WtCom= 9.76D-01 WtEn= 2.43D-02
 Coeff-Com:  0.790D-02-0.788D-02-0.282D-01 0.620D-01 0.192D+00-0.232D+00
 Coeff-Com: -0.397D+00 0.140D+01
 Coeff-En:   0.000D+00 0.000D+00 0.000D+00 0.000D+00 0.000D+00 0.000D+00
 Coeff-En:   0.000D+00 0.100D+01
 Coeff:      0.771D-02-0.769D-02-0.275D-01 0.605D-01 0.188D+00-0.227D+00
 Coeff:     -0.387D+00 0.139D+01
 Gap=     0.052 Goal=   None    Shift=    0.000
 RMSDP=3.68D-03 MaxDP=5.52D-02 DE=-1.48D-02 OVMax= 1.56D-01

 Cycle   9  Pass 1  IDiag  3:
 E=-0.399535933322340     Delta-E=       -0.007000925931 Rises=F Damp=F
 DIIS: error= 8.32D-04 at cycle   9 NSaved=   9.
 NSaved= 9 IEnMin= 9 EnMin=-0.399535933322340     IErMin= 9 ErrMin= 8.32D-04
 ErrMax= 8.32D-04  0.00D+00 EMaxC= 1.00D-01 BMatC= 5.19D-05 BMatP= 6.56D-04
 IDIUse=3 WtCom= 9.92D-01 WtEn= 8.32D-03
 Coeff-Com: -0.551D-02-0.160D-02 0.231D-01-0.952D-02-0.135D+00 0.278D+00
 Coeff-Com: -0.546D-01-0.344D+00 0.125D+01
 Coeff-En:   0.000D+00 0.000D+00 0.000D+00 0.000D+00 0.000D+00 0.000D+00
 Coeff-En:   0.000D+00 0.000D+00 0.100D+01
 Coeff:     -0.547D-02-0.159D-02 0.229D-01-0.944D-02-0.134D+00 0.276D+00
 Coeff:     -0.542D-01-0.341D+00 0.125D+01
 Gap=     0.071 Goal=   None    Shift=    0.000
 RMSDP=1.51D-03 MaxDP=1.96D-02 DE=-7.00D-03 OVMax= 6.06D-02

 Cycle  10  Pass 1  IDiag  3:
 E=-0.400047619693680     Delta-E=       -0.000511686371 Rises=F Damp=F
 DIIS: error= 7.62D-04 at cycle  10 NSaved=  10.
 NSaved=10 IEnMin=10 EnMin=-0.400047619693680     IErMin=10 ErrMin= 7.62D-04
 ErrMax= 7.62D-04  0.00D+00 EMaxC= 1.00D-01 BMatC= 8.20D-05 BMatP= 5.19D-05
 IDIUse=3 WtCom= 9.92D-01 WtEn= 8.32D-03
 Coeff-Com:  0.244D-02-0.815D-04-0.930D-02-0.935D-02 0.781D-01-0.106D+00
 Coeff-Com: -0.544D-01 0.448D+00-0.451D+00 0.110D+01
 Coeff-En:   0.000D+00 0.000D+00 0.000D+00 0.000D+00 0.000D+00 0.000D+00
 Coeff-En:   0.000D+00 0.000D+00 0.000D+00 0.100D+01
 Coeff:      0.242D-02-0.808D-04-0.922D-02-0.927D-02 0.774D-01-0.105D+00
 Coeff:     -0.539D-01 0.444D+00-0.448D+00 0.110D+01
 Gap=     0.072 Goal=   None    Shift=    0.000
 RMSDP=4.17D-04 MaxDP=3.67D-03 DE=-5.12D-04 OVMax= 1.18D-02

 Cycle  11  Pass 1  IDiag  3:
 E=-0.400352558865222     Delta-E=       -0.000304939172 Rises=F Damp=F
 DIIS: error= 4.29D-04 at cycle  11 NSaved=  11.
 NSaved=11 IEnMin=11 EnMin=-0.400352558865222     IErMin=11 ErrMin= 4.29D-04
 ErrMax= 4.29D-04  0.00D+00 EMaxC= 1.00D-01 BMatC= 3.29D-05 BMatP= 5.19D-05
 IDIUse=3 WtCom= 9.96D-01 WtEn= 4.29D-03
 Coeff-Com: -0.812D-03 0.547D-03 0.841D-03-0.619D-02-0.204D-01 0.949D-01
 Coeff-Com: -0.127D+00 0.846D-01-0.768D-01-0.997D+00 0.205D+01
 Coeff-En:   0.000D+00 0.000D+00 0.000D+00 0.000D+00 0.000D+00 0.000D+00
 Coeff-En:   0.000D+00 0.000D+00 0.000D+00 0.000D+00 0.100D+01
 Coeff:     -0.808D-03 0.545D-03 0.837D-03-0.617D-02-0.203D-01 0.945D-01
 Coeff:     -0.127D+00 0.842D-01-0.765D-01-0.993D+00 0.204D+01
 Gap=     0.077 Goal=   None    Shift=    0.000
 RMSDP=6.23D-04 MaxDP=6.57D-03 DE=-3.05D-04 OVMax= 2.16D-02

 Cycle  12  Pass 1  IDiag  3:
 E=-0.400585800057570     Delta-E=       -0.000233241192 Rises=F Damp=F
 DIIS: error= 3.19D-04 at cycle  12 NSaved=  12.
 NSaved=12 IEnMin=12 EnMin=-0.400585800057570     IErMin=12 ErrMin= 3.19D-04
 ErrMax= 3.19D-04  0.00D+00 EMaxC= 1.00D-01 BMatC= 1.17D-05 BMatP= 3.29D-05
 IDIUse=3 WtCom= 9.97D-01 WtEn= 3.19D-03
 Coeff-Com: -0.447D-03 0.462D-03 0.252D-02-0.333D-02-0.532D-02-0.115D-01
 Coeff-Com:  0.582D-01-0.977D-01 0.343D+00 0.801D-01-0.140D+01 0.204D+01
 Coeff-En:   0.000D+00 0.000D+00 0.000D+00 0.000D+00 0.000D+00 0.000D+00
 Coeff-En:   0.000D+00 0.000D+00 0.000D+00 0.000D+00 0.000D+00 0.100D+01
 Coeff:     -0.445D-03 0.461D-03 0.251D-02-0.332D-02-0.531D-02-0.114D-01
 Coeff:      0.580D-01-0.974D-01 0.342D+00 0.799D-01-0.140D+01 0.203D+01
 Gap=     0.078 Goal=   None    Shift=    0.000
 RMSDP=5.10D-04 MaxDP=5.18D-03 DE=-2.33D-04 OVMax= 1.81D-02

 Cycle  13  Pass 1  IDiag  3:
 E=-0.400714961722940     Delta-E=       -0.000129161665 Rises=F Damp=F
 DIIS: error= 1.58D-04 at cycle  13 NSaved=  13.
 NSaved=13 IEnMin=13 EnMin=-0.400714961722940     IErMin=13 ErrMin= 1.58D-04
 ErrMax= 1.58D-04  0.00D+00 EMaxC= 1.00D-01 BMatC= 3.13D-06 BMatP= 1.17D-05
 IDIUse=3 WtCom= 9.98D-01 WtEn= 1.58D-03
 Coeff-Com: -0.193D-03 0.242D-03 0.606D-03-0.163D-02-0.998D-02 0.244D-01
 Coeff-Com: -0.210D-01 0.477D-02 0.303D-01 0.943D-01-0.430D-01-0.913D+00
 Coeff-Com:  0.183D+01
 Coeff-En:   0.000D+00 0.000D+00 0.000D+00 0.000D+00 0.000D+00 0.000D+00
 Coeff-En:   0.000D+00 0.000D+00 0.000D+00 0.000D+00 0.000D+00 0.000D+00
 Coeff-En:   0.100D+01
 Coeff:     -0.193D-03 0.242D-03 0.605D-03-0.163D-02-0.997D-02 0.243D-01
 Coeff:     -0.210D-01 0.476D-02 0.302D-01 0.941D-01-0.429D-01-0.912D+00
 Coeff:      0.183D+01
 Gap=     0.079 Goal=   None    Shift=    0.000
 RMSDP=4.18D-04 MaxDP=4.24D-03 DE=-1.29D-04 OVMax= 1.50D-02

 Cycle  14  Pass 1  IDiag  3:
 E=-0.400780210877997     Delta-E=       -0.000065249155 Rises=F Damp=F
 DIIS: error= 9.25D-05 at cycle  14 NSaved=  14.
 NSaved=14 IEnMin=14 EnMin=-0.400780210877997     IErMin=14 ErrMin= 9.25D-05
 ErrMax= 9.25D-05  0.00D+00 EMaxC= 1.00D-01 BMatC= 1.15D-06 BMatP= 3.13D-06
 IDIUse=1 WtCom= 1.00D+00 WtEn= 0.00D+00
 Coeff-Com: -0.397D-03 0.173D-03 0.104D-02-0.484D-03-0.126D-01 0.290D-01
 Coeff-Com: -0.198D-01-0.862D-02 0.410D-01-0.759D-01 0.115D+00-0.100D+00
 Coeff-Com: -0.694D+00 0.173D+01
 Coeff:     -0.397D-03 0.173D-03 0.104D-02-0.484D-03-0.126D-01 0.290D-01
 Coeff:     -0.198D-01-0.862D-02 0.410D-01-0.759D-01 0.115D+00-0.100D+00
 Coeff:     -0.694D+00 0.173D+01
 Gap=     0.080 Goal=   None    Shift=    0.000
 RMSDP=3.44D-04 MaxDP=3.47D-03 DE=-6.52D-05 OVMax= 1.25D-02

 Cycle  15  Pass 1  IDiag  3:
 E=-0.400814851044629     Delta-E=       -0.000034640167 Rises=F Damp=F
 DIIS: error= 6.59D-05 at cycle  15 NSaved=  15.
 NSaved=15 IEnMin=15 EnMin=-0.400814851044629     IErMin=15 ErrMin= 6.59D-05
 ErrMax= 6.59D-05  0.00D+00 EMaxC= 1.00D-01 BMatC= 3.78D-07 BMatP= 1.15D-06
 IDIUse=1 WtCom= 1.00D+00 WtEn= 0.00D+00
 Coeff-Com: -0.137D-03 0.128D-03 0.305D-03-0.448D-04-0.305D-02 0.407D-02
 Coeff-Com:  0.447D-02-0.203D-01 0.517D-01 0.342D-02-0.139D+00 0.281D+00
 Coeff-Com: -0.355D+00-0.388D+00 0.156D+01
 Coeff:     -0.137D-03 0.128D-03 0.305D-03-0.448D-04-0.305D-02 0.407D-02
 Coeff:      0.447D-02-0.203D-01 0.517D-01 0.342D-02-0.139D+00 0.281D+00
 Coeff:     -0.355D+00-0.388D+00 0.156D+01
 Gap=     0.081 Goal=   None    Shift=    0.000
 RMSDP=2.37D-04 MaxDP=2.45D-03 DE=-3.46D-05 OVMax= 8.80D-03

 Cycle  16  Pass 1  IDiag  3:
 E=-0.400829722965909     Delta-E=       -0.000014871921 Rises=F Damp=F
 DIIS: error= 4.81D-05 at cycle  16 NSaved=  16.
 NSaved=16 IEnMin=16 EnMin=-0.400829722965909     IErMin=16 ErrMin= 4.81D-05
 ErrMax= 4.81D-05  0.00D+00 EMaxC= 1.00D-01 BMatC= 1.65D-07 BMatP= 3.78D-07
 IDIUse=1 WtCom= 1.00D+00 WtEn= 0.00D+00
 Coeff-Com: -0.149D-03 0.757D-04 0.380D-03 0.205D-04-0.350D-02 0.602D-02
 Coeff-Com: -0.190D-02-0.109D-01 0.156D-01-0.917D-02 0.588D-02 0.653D-02
 Coeff-Com:  0.780D-01-0.256D+00-0.351D+00 0.152D+01
 Coeff:     -0.149D-03 0.757D-04 0.380D-03 0.205D-04-0.350D-02 0.602D-02
 Coeff:     -0.190D-02-0.109D-01 0.156D-01-0.917D-02 0.588D-02 0.653D-02
 Coeff:      0.780D-01-0.256D+00-0.351D+00 0.152D+01
 Gap=     0.081 Goal=   None    Shift=    0.000
 RMSDP=1.59D-04 MaxDP=1.73D-03 DE=-1.49D-05 OVMax= 6.11D-03

 Cycle  17  Pass 1  IDiag  3:
 E=-0.400836197396188     Delta-E=       -0.000006474430 Rises=F Damp=F
 DIIS: error= 3.47D-05 at cycle  17 NSaved=  17.
 NSaved=17 IEnMin=17 EnMin=-0.400836197396188     IErMin=17 ErrMin= 3.47D-05
 ErrMax= 3.47D-05  0.00D+00 EMaxC= 1.00D-01 BMatC= 8.95D-08 BMatP= 1.65D-07
 IDIUse=1 WtCom= 1.00D+00 WtEn= 0.00D+00
 Coeff-Com: -0.558D-04 0.501D-04 0.242D-03 0.679D-04-0.207D-02 0.266D-02
 Coeff-Com:  0.230D-03-0.832D-02 0.177D-01 0.461D-02-0.370D-01 0.258D-01
 Coeff-Com:  0.364D-01 0.414D-01-0.278D+00-0.327D+00 0.152D+01
 Coeff:     -0.558D-04 0.501D-04 0.242D-03 0.679D-04-0.207D-02 0.266D-02
 Coeff:      0.230D-03-0.832D-02 0.177D-01 0.461D-02-0.370D-01 0.258D-01
 Coeff:      0.364D-01 0.414D-01-0.278D+00-0.327D+00 0.152D+01
 Gap=     0.081 Goal=   None    Shift=    0.000
 RMSDP=1.02D-04 MaxDP=1.14D-03 DE=-6.47D-06 OVMax= 3.99D-03

 Cycle  18  Pass 1  IDiag  3:
 E=-0.400839155423625     Delta-E=       -0.000002958027 Rises=F Damp=F
 DIIS: error= 2.35D-05 at cycle  18 NSaved=  18.
 NSaved=18 IEnMin=18 EnMin=-0.400839155423625     IErMin=18 ErrMin= 2.35D-05
 ErrMax= 2.35D-05  0.00D+00 EMaxC= 1.00D-01 BMatC= 5.06D-08 BMatP= 8.95D-08
 IDIUse=1 WtCom= 1.00D+00 WtEn= 0.00D+00
 Coeff-Com: -0.651D-04 0.253D-04 0.241D-03 0.904D-04-0.217D-02 0.295D-02
 Coeff-Com:  0.613D-03-0.829D-02 0.140D-01-0.143D-02-0.227D-01 0.340D-01
 Coeff-Com: -0.953D-02-0.181D-02 0.246D-01-0.199D+00-0.282D+00 0.145D+01
 Coeff:     -0.651D-04 0.253D-04 0.241D-03 0.904D-04-0.217D-02 0.295D-02
 Coeff:      0.613D-03-0.829D-02 0.140D-01-0.143D-02-0.227D-01 0.340D-01
 Coeff:     -0.953D-02-0.181D-02 0.246D-01-0.199D+00-0.282D+00 0.145D+01
 Gap=     0.081 Goal=   None    Shift=    0.000
 RMSDP=6.83D-05 MaxDP=7.59D-04 DE=-2.96D-06 OVMax= 2.73D-03

 Cycle  19  Pass 1  IDiag  3:
 E=-0.400840645112964     Delta-E=       -0.000001489689 Rises=F Damp=F
 DIIS: error= 1.66D-05 at cycle  19 NSaved=  19.
 NSaved=19 IEnMin=19 EnMin=-0.400840645112964     IErMin=19 ErrMin= 1.66D-05
 ErrMax= 1.66D-05  0.00D+00 EMaxC= 1.00D-01 BMatC= 2.99D-08 BMatP= 5.06D-08
 IDIUse=1 WtCom= 1.00D+00 WtEn= 0.00D+00
 Coeff-Com: -0.421D-04 0.208D-04 0.136D-03 0.116D-03-0.142D-02 0.220D-02
 Coeff-Com: -0.316D-03-0.405D-02 0.667D-02 0.650D-02-0.220D-01 0.181D-01
 Coeff-Com: -0.863D-02 0.393D-02 0.452D-02 0.386D-01-0.219D+00-0.344D+00
 Coeff-Com:  0.152D+01
 Coeff:     -0.421D-04 0.208D-04 0.136D-03 0.116D-03-0.142D-02 0.220D-02
 Coeff:     -0.316D-03-0.405D-02 0.667D-02 0.650D-02-0.220D-01 0.181D-01
 Coeff:     -0.863D-02 0.393D-02 0.452D-02 0.386D-01-0.219D+00-0.344D+00
 Coeff:      0.152D+01
 Gap=     0.081 Goal=   None    Shift=    0.000
 RMSDP=5.46D-05 MaxDP=5.79D-04 DE=-1.49D-06 OVMax= 2.19D-03

 Cycle  20  Pass 1  IDiag  3:
 E=-0.400841550002099     Delta-E=       -0.000000904889 Rises=F Damp=F
 DIIS: error= 1.31D-05 at cycle  20 NSaved=  20.
 NSaved=20 IEnMin=20 EnMin=-0.400841550002099     IErMin=20 ErrMin= 1.31D-05
 ErrMax= 1.31D-05  0.00D+00 EMaxC= 1.00D-01 BMatC= 1.93D-08 BMatP= 2.99D-08
 IDIUse=1 WtCom= 1.00D+00 WtEn= 0.00D+00
 Coeff-Com: -0.217D-04 0.166D-04 0.578D-04 0.114D-03-0.809D-03 0.975D-03
 Coeff-Com:  0.680D-03-0.336D-02 0.484D-02 0.829D-02-0.222D-01 0.214D-01
 Coeff-Com: -0.175D-01 0.722D-03 0.211D-01-0.226D-01 0.539D-01-0.185D+00
 Coeff-Com: -0.472D+00 0.161D+01
 Coeff:     -0.217D-04 0.166D-04 0.578D-04 0.114D-03-0.809D-03 0.975D-03
 Coeff:      0.680D-03-0.336D-02 0.484D-02 0.829D-02-0.222D-01 0.214D-01
 Coeff:     -0.175D-01 0.722D-03 0.211D-01-0.226D-01 0.539D-01-0.185D+00
 Coeff:     -0.472D+00 0.161D+01
 Gap=     0.081 Goal=   None    Shift=    0.000
 RMSDP=4.59D-05 MaxDP=5.04D-04 DE=-9.05D-07 OVMax= 1.84D-03

 Cycle  21  Pass 1  IDiag  3:
 E=-0.400842130763863     Delta-E=       -0.000000580762 Rises=F Damp=F
 DIIS: error= 1.00D-05 at cycle  21 NSaved=  20.
 NSaved=20 IEnMin=20 EnMin=-0.400842130763863     IErMin=20 ErrMin= 1.00D-05
 ErrMax= 1.00D-05  0.00D+00 EMaxC= 1.00D-01 BMatC= 1.19D-08 BMatP= 1.93D-08
 IDIUse=1 WtCom= 1.00D+00 WtEn= 0.00D+00
 Coeff-Com:  0.130D-04-0.171D-04 0.836D-04-0.325D-03 0.241D-03 0.669D-03
 Coeff-Com: -0.186D-02 0.157D-02 0.842D-02-0.143D-01 0.570D-02-0.115D-03
 Coeff-Com: -0.205D-02 0.108D-02-0.475D-02 0.398D-01 0.310D-01-0.386D+00
 Coeff-Com: -0.186D+00 0.151D+01
 Coeff:      0.130D-04-0.171D-04 0.836D-04-0.325D-03 0.241D-03 0.669D-03
 Coeff:     -0.186D-02 0.157D-02 0.842D-02-0.143D-01 0.570D-02-0.115D-03
 Coeff:     -0.205D-02 0.108D-02-0.475D-02 0.398D-01 0.310D-01-0.386D+00
 Coeff:     -0.186D+00 0.151D+01
 Gap=     0.081 Goal=   None    Shift=    0.000
 RMSDP=3.97D-05 MaxDP=4.41D-04 DE=-5.81D-07 OVMax= 1.58D-03

 Cycle  22  Pass 1  IDiag  3:
 E=-0.400842493089442     Delta-E=       -0.000000362326 Rises=F Damp=F
 DIIS: error= 7.49D-06 at cycle  22 NSaved=  20.
 NSaved=20 IEnMin=20 EnMin=-0.400842493089442     IErMin=20 ErrMin= 7.49D-06
 ErrMax= 7.49D-06  0.00D+00 EMaxC= 1.00D-01 BMatC= 6.41D-09 BMatP= 1.19D-08
 IDIUse=1 WtCom= 1.00D+00 WtEn= 0.00D+00
 Coeff-Com: -0.439D-04 0.706D-04-0.242D-03 0.474D-03 0.195D-04-0.104D-02
 Coeff-Com:  0.104D-02 0.407D-02-0.523D-02 0.867D-04 0.204D-02-0.765D-02
 Coeff-Com:  0.223D-02-0.240D-02 0.134D-01 0.482D-01-0.194D-01-0.387D+00
 Coeff-Com: -0.117D+00 0.147D+01
 Coeff:     -0.439D-04 0.706D-04-0.242D-03 0.474D-03 0.195D-04-0.104D-02
 Coeff:      0.104D-02 0.407D-02-0.523D-02 0.867D-04 0.204D-02-0.765D-02
 Coeff:      0.223D-02-0.240D-02 0.134D-01 0.482D-01-0.194D-01-0.387D+00
 Coeff:     -0.117D+00 0.147D+01
 Gap=     0.081 Goal=   None    Shift=    0.000
 RMSDP=3.41D-05 MaxDP=3.78D-04 DE=-3.62D-07 OVMax= 1.35D-03

 Cycle  23  Pass 1  IDiag  3:
 E=-0.400842689339981     Delta-E=       -0.000000196251 Rises=F Damp=F
 DIIS: error= 5.45D-06 at cycle  23 NSaved=  20.
 NSaved=20 IEnMin=20 EnMin=-0.400842689339981     IErMin=20 ErrMin= 5.45D-06
 ErrMax= 5.45D-06  0.00D+00 EMaxC= 1.00D-01 BMatC= 3.11D-09 BMatP= 6.41D-09
 IDIUse=1 WtCom= 1.00D+00 WtEn= 0.00D+00
 Coeff-Com: -0.199D-04-0.224D-03 0.549D-03-0.546D-03-0.115D-03 0.240D-03
 Coeff-Com:  0.174D-02 0.312D-03-0.252D-02 0.135D-02-0.737D-02 0.877D-02
 Coeff-Com:  0.260D-02-0.465D-02 0.194D-01-0.180D-01 0.305D-01-0.370D+00
 Coeff-Com:  0.442D-01 0.129D+01
 Coeff:     -0.199D-04-0.224D-03 0.549D-03-0.546D-03-0.115D-03 0.240D-03
 Coeff:      0.174D-02 0.312D-03-0.252D-02 0.135D-02-0.737D-02 0.877D-02
 Coeff:      0.260D-02-0.465D-02 0.194D-01-0.180D-01 0.305D-01-0.370D+00
 Coeff:      0.442D-01 0.129D+01
 Gap=     0.081 Goal=   None    Shift=    0.000
 RMSDP=2.16D-05 MaxDP=2.42D-04 DE=-1.96D-07 OVMax= 8.37D-04

 Cycle  24  Pass 1  IDiag  3:
 E=-0.400842763484093     Delta-E=       -0.000000074144 Rises=F Damp=F
 DIIS: error= 2.61D-06 at cycle  24 NSaved=  20.
 NSaved=20 IEnMin=20 EnMin=-0.400842763484093     IErMin=20 ErrMin= 2.61D-06
 ErrMax= 2.61D-06  0.00D+00 EMaxC= 1.00D-01 BMatC= 8.83D-10 BMatP= 3.11D-09
 IDIUse=1 WtCom= 1.00D+00 WtEn= 0.00D+00
 Coeff-Com: -0.116D-03 0.387D-03-0.506D-03 0.329D-03 0.497D-03-0.134D-02
 Coeff-Com:  0.111D-02-0.190D-02 0.198D-02 0.103D-02-0.357D-02-0.327D-02
 Coeff-Com:  0.492D-02-0.142D-02 0.169D-01 0.480D-01 0.185D-01-0.343D+00
 Coeff-Com: -0.153D+00 0.141D+01
 Coeff:     -0.116D-03 0.387D-03-0.506D-03 0.329D-03 0.497D-03-0.134D-02
 Coeff:      0.111D-02-0.190D-02 0.198D-02 0.103D-02-0.357D-02-0.327D-02
 Coeff:      0.492D-02-0.142D-02 0.169D-01 0.480D-01 0.185D-01-0.343D+00
 Coeff:     -0.153D+00 0.141D+01
 Gap=     0.081 Goal=   None    Shift=    0.000
 RMSDP=1.32D-05 MaxDP=1.44D-04 DE=-7.41D-08 OVMax= 5.01D-04

 Cycle  25  Pass 1  IDiag  3:
 E=-0.400842785521263     Delta-E=       -0.000000022037 Rises=F Damp=F
 DIIS: error= 1.40D-06 at cycle  25 NSaved=  20.
 NSaved=20 IEnMin=20 EnMin=-0.400842785521263     IErMin=20 ErrMin= 1.40D-06
 ErrMax= 1.40D-06  0.00D+00 EMaxC= 1.00D-01 BMatC= 3.32D-10 BMatP= 8.83D-10
 IDIUse=1 WtCom= 1.00D+00 WtEn= 0.00D+00
 Coeff-Com:  0.295D-04-0.111D-03 0.173D-03 0.166D-03 0.678D-03-0.133D-02
 Coeff-Com:  0.936D-04-0.444D-03-0.630D-03 0.319D-03 0.310D-02-0.759D-02
 Coeff-Com:  0.449D-02 0.102D-01 0.105D-01 0.483D-02 0.661D-01-0.264D+00
 Coeff-Com: -0.285D+00 0.146D+01
 Coeff:      0.295D-04-0.111D-03 0.173D-03 0.166D-03 0.678D-03-0.133D-02
 Coeff:      0.936D-04-0.444D-03-0.630D-03 0.319D-03 0.310D-02-0.759D-02
 Coeff:      0.449D-02 0.102D-01 0.105D-01 0.483D-02 0.661D-01-0.264D+00
 Coeff:     -0.285D+00 0.146D+01
 Gap=     0.081 Goal=   None    Shift=    0.000
 RMSDP=5.84D-06 MaxDP=6.17D-05 DE=-2.20D-08 OVMax= 2.10D-04

 Cycle  26  Pass 1  IDiag  3:
 E=-0.400842791010632     Delta-E=       -0.000000005489 Rises=F Damp=F
 DIIS: error= 8.44D-07 at cycle  26 NSaved=  20.
 NSaved=20 IEnMin=20 EnMin=-0.400842791010632     IErMin=20 ErrMin= 8.44D-07
 ErrMax= 8.44D-07  0.00D+00 EMaxC= 1.00D-01 BMatC= 9.80D-11 BMatP= 3.32D-10
 IDIUse=1 WtCom= 1.00D+00 WtEn= 0.00D+00
 Coeff-Com: -0.265D-04 0.589D-04-0.144D-03 0.544D-03-0.286D-03-0.424D-03
 Coeff-Com:  0.111D-02 0.631D-03-0.213D-02-0.117D-03 0.220D-02 0.128D-02
 Coeff-Com: -0.119D-01 0.158D-01 0.189D-01-0.264D-01 0.719D-01-0.139D+00
 Coeff-Com: -0.446D+00 0.151D+01
 Coeff:     -0.265D-04 0.589D-04-0.144D-03 0.544D-03-0.286D-03-0.424D-03
 Coeff:      0.111D-02 0.631D-03-0.213D-02-0.117D-03 0.220D-02 0.128D-02
 Coeff:     -0.119D-01 0.158D-01 0.189D-01-0.264D-01 0.719D-01-0.139D+00
 Coeff:     -0.446D+00 0.151D+01
 Gap=     0.081 Goal=   None    Shift=    0.000
 RMSDP=1.77D-06 MaxDP=2.33D-05 DE=-5.49D-09 OVMax= 4.04D-05

 Cycle  27  Pass 1  IDiag  3:
 E=-0.400842792783465     Delta-E=       -0.000000001773 Rises=F Damp=F
 DIIS: error= 6.00D-07 at cycle  27 NSaved=  20.
 NSaved=20 IEnMin=20 EnMin=-0.400842792783465     IErMin=20 ErrMin= 6.00D-07
 ErrMax= 6.00D-07  0.00D+00 EMaxC= 1.00D-01 BMatC= 2.62D-11 BMatP= 9.80D-11
 IDIUse=1 WtCom= 1.00D+00 WtEn= 0.00D+00
 Coeff-Com:  0.120D-04-0.131D-03-0.826D-04 0.473D-03-0.424D-03 0.435D-03
 Coeff-Com: -0.738D-03 0.117D-02 0.612D-03 0.122D-02-0.214D-02 0.249D-02
 Coeff-Com: -0.742D-02-0.833D-02 0.199D-01-0.225D-01 0.750D-01 0.541D-01
 Coeff-Com: -0.829D+00 0.172D+01
 Coeff:      0.120D-04-0.131D-03-0.826D-04 0.473D-03-0.424D-03 0.435D-03
 Coeff:     -0.738D-03 0.117D-02 0.612D-03 0.122D-02-0.214D-02 0.249D-02
 Coeff:     -0.742D-02-0.833D-02 0.199D-01-0.225D-01 0.750D-01 0.541D-01
 Coeff:     -0.829D+00 0.172D+01
 Gap=     0.081 Goal=   None    Shift=    0.000
 RMSDP=1.53D-06 MaxDP=1.47D-05 DE=-1.77D-09 OVMax= 3.93D-05

 Cycle  28  Pass 1  IDiag  3:
 E=-0.400842793470247     Delta-E=       -0.000000000687 Rises=F Damp=F
 DIIS: error= 2.94D-07 at cycle  28 NSaved=  20.
 NSaved=20 IEnMin=20 EnMin=-0.400842793470247     IErMin=20 ErrMin= 2.94D-07
 ErrMax= 2.94D-07  0.00D+00 EMaxC= 1.00D-01 BMatC= 7.17D-12 BMatP= 2.62D-11
 IDIUse=1 WtCom= 1.00D+00 WtEn= 0.00D+00
 Coeff-Com:  0.279D-04 0.208D-04-0.230D-03 0.307D-03-0.893D-04 0.162D-04
 Coeff-Com: -0.557D-03-0.277D-04 0.354D-03 0.226D-02-0.138D-02 0.587D-04
 Coeff-Com: -0.756D-04-0.627D-02 0.919D-03-0.106D-01 0.203D-01 0.173D+00
 Coeff-Com: -0.761D+00 0.158D+01
 Coeff:      0.279D-04 0.208D-04-0.230D-03 0.307D-03-0.893D-04 0.162D-04
 Coeff:     -0.557D-03-0.277D-04 0.354D-03 0.226D-02-0.138D-02 0.587D-04
 Coeff:     -0.756D-04-0.627D-02 0.919D-03-0.106D-01 0.203D-01 0.173D+00
 Coeff:     -0.761D+00 0.158D+01
 Gap=     0.081 Goal=   None    Shift=    0.000
 RMSDP=6.38D-07 MaxDP=6.76D-06 DE=-6.87D-10 OVMax= 1.76D-05

 Cycle  29  Pass 1  IDiag  3:
 E=-0.400842793647712     Delta-E=       -0.000000000177 Rises=F Damp=F
 DIIS: error= 1.59D-07 at cycle  29 NSaved=  20.
 NSaved=20 IEnMin=20 EnMin=-0.400842793647712     IErMin=20 ErrMin= 1.59D-07
 ErrMax= 1.59D-07  0.00D+00 EMaxC= 1.00D-01 BMatC= 2.51D-12 BMatP= 7.17D-12
 IDIUse=1 WtCom= 1.00D+00 WtEn= 0.00D+00
 Coeff-Com: -0.236D-04 0.118D-03-0.235D-03 0.302D-03-0.146D-03-0.827D-04
 Coeff-Com: -0.264D-03 0.414D-03-0.340D-03-0.629D-03 0.767D-04 0.112D-02
 Coeff-Com:  0.128D-02-0.711D-03-0.300D-02-0.480D-02-0.266D-02 0.146D+00
 Coeff-Com: -0.928D+00 0.179D+01
 Coeff:     -0.236D-04 0.118D-03-0.235D-03 0.302D-03-0.146D-03-0.827D-04
 Coeff:     -0.264D-03 0.414D-03-0.340D-03-0.629D-03 0.767D-04 0.112D-02
 Coeff:      0.128D-02-0.711D-03-0.300D-02-0.480D-02-0.266D-02 0.146D+00
 Coeff:     -0.928D+00 0.179D+01
 Gap=     0.081 Goal=   None    Shift=    0.000
 RMSDP=4.19D-07 MaxDP=4.52D-06 DE=-1.77D-10 OVMax= 1.11D-05

 Cycle  30  Pass 1  IDiag  3:
 E=-0.400842793720528     Delta-E=       -0.000000000073 Rises=F Damp=F
 DIIS: error= 1.07D-07 at cycle  30 NSaved=  20.
 NSaved=20 IEnMin=20 EnMin=-0.400842793720528     IErMin=20 ErrMin= 1.07D-07
 ErrMax= 1.07D-07  0.00D+00 EMaxC= 1.00D-01 BMatC= 7.40D-13 BMatP= 2.51D-12
 IDIUse=1 WtCom= 1.00D+00 WtEn= 0.00D+00
 Coeff-Com: -0.176D-04 0.348D-04-0.135D-04-0.141D-04 0.216D-04-0.377D-04
 Coeff-Com: -0.853D-04 0.386D-03-0.163D-03 0.564D-04 0.127D-03 0.335D-03
 Coeff-Com: -0.107D-02 0.858D-03 0.545D-03-0.585D-02 0.540D-02 0.139D+00
 Coeff-Com: -0.807D+00 0.167D+01
 Coeff:     -0.176D-04 0.348D-04-0.135D-04-0.141D-04 0.216D-04-0.377D-04
 Coeff:     -0.853D-04 0.386D-03-0.163D-03 0.564D-04 0.127D-03 0.335D-03
 Coeff:     -0.107D-02 0.858D-03 0.545D-03-0.585D-02 0.540D-02 0.139D+00
 Coeff:     -0.807D+00 0.167D+01
 Gap=     0.081 Goal=   None    Shift=    0.000
 RMSDP=2.41D-07 MaxDP=2.77D-06 DE=-7.28D-11 OVMax= 6.73D-06

 Cycle  31  Pass 1  IDiag  3:
 E=-0.400842793740821     Delta-E=       -0.000000000020 Rises=F Damp=F
 DIIS: error= 5.68D-08 at cycle  31 NSaved=  20.
 NSaved=20 IEnMin=20 EnMin=-0.400842793740821     IErMin=20 ErrMin= 5.68D-08
 ErrMax= 5.68D-08  0.00D+00 EMaxC= 1.00D-01 BMatC= 2.15D-13 BMatP= 7.40D-13
 IDIUse=1 WtCom= 1.00D+00 WtEn= 0.00D+00
 Coeff-Com: -0.636D-05 0.704D-04-0.776D-04 0.595D-05-0.794D-04 0.251D-03
 Coeff-Com: -0.188D-03 0.209D-03-0.453D-03 0.244D-03-0.522D-03-0.150D-04
 Coeff-Com:  0.171D-02-0.384D-02-0.817D-02 0.334D-01-0.249D-01 0.151D+00
 Coeff-Com: -0.808D+00 0.166D+01
 Coeff:     -0.636D-05 0.704D-04-0.776D-04 0.595D-05-0.794D-04 0.251D-03
 Coeff:     -0.188D-03 0.209D-03-0.453D-03 0.244D-03-0.522D-03-0.150D-04
 Coeff:      0.171D-02-0.384D-02-0.817D-02 0.334D-01-0.249D-01 0.151D+00
 Coeff:     -0.808D+00 0.166D+01
 Gap=     0.081 Goal=   None    Shift=    0.000
 RMSDP=1.22D-07 MaxDP=1.17D-06 DE=-2.03D-11 OVMax= 2.91D-06

 Cycle  32  Pass 1  IDiag  3:
 E=-0.400842793745880     Delta-E=       -0.000000000005 Rises=F Damp=F
 DIIS: error= 2.66D-08 at cycle  32 NSaved=  20.
 NSaved=20 IEnMin=20 EnMin=-0.400842793745880     IErMin=20 ErrMin= 2.66D-08
 ErrMax= 2.66D-08  0.00D+00 EMaxC= 1.00D-01 BMatC= 6.12D-14 BMatP= 2.15D-13
 IDIUse=1 WtCom= 1.00D+00 WtEn= 0.00D+00
 Coeff-Com: -0.400D-04 0.158D-04 0.469D-07 0.118D-03-0.132D-03 0.409D-04
 Coeff-Com: -0.937D-04 0.181D-03-0.147D-03 0.855D-03 0.577D-03-0.242D-02
 Coeff-Com:  0.179D-02-0.100D-03-0.659D-02 0.127D-01-0.738D-02 0.139D+00
 Coeff-Com: -0.802D+00 0.166D+01
 Coeff:     -0.400D-04 0.158D-04 0.469D-07 0.118D-03-0.132D-03 0.409D-04
 Coeff:     -0.937D-04 0.181D-03-0.147D-03 0.855D-03 0.577D-03-0.242D-02
 Coeff:      0.179D-02-0.100D-03-0.659D-02 0.127D-01-0.738D-02 0.139D+00
 Coeff:     -0.802D+00 0.166D+01
 Gap=     0.081 Goal=   None    Shift=    0.000
 RMSDP=5.23D-08 MaxDP=7.02D-07 DE=-5.06D-12 OVMax= 1.65D-06

 Cycle  33  Pass 1  IDiag  3:
 E=-0.400842793747756     Delta-E=       -0.000000000002 Rises=F Damp=F
 DIIS: error= 1.41D-08 at cycle  33 NSaved=  20.
 NSaved=20 IEnMin=20 EnMin=-0.400842793747756     IErMin=20 ErrMin= 1.41D-08
 ErrMax= 1.41D-08  0.00D+00 EMaxC= 1.00D-01 BMatC= 1.66D-14 BMatP= 6.12D-14
 IDIUse=1 WtCom= 1.00D+00 WtEn= 0.00D+00
 Large coefficients: NSaved= 20 BigCof=    0.00 CofMax=   10.00 Det=-4.47D-15
 Inversion failed.  Reducing to 19 matrices.
 Large coefficients: NSaved= 19 BigCof=    0.00 CofMax=   10.00 Det=-4.59D-15
 Inversion failed.  Reducing to 18 matrices.
 Large coefficients: NSaved= 18 BigCof=    0.00 CofMax=   10.00 Det=-4.78D-15
 Inversion failed.  Reducing to 17 matrices.
 Large coefficients: NSaved= 17 BigCof=    0.00 CofMax=   10.00 Det=-4.78D-15
 Inversion failed.  Reducing to 16 matrices.
 Large coefficients: NSaved= 16 BigCof=    0.00 CofMax=   10.00 Det=-4.79D-15
 Inversion failed.  Reducing to 15 matrices.
 Coeff-Com: -0.377D-04-0.134D-03 0.888D-04-0.100D-04 0.101D-03-0.404D-04
 Coeff-Com: -0.114D-03 0.838D-03-0.310D-03-0.339D-02-0.287D-02 0.227D-01
 Coeff-Com:  0.423D-01-0.583D+00 0.152D+01
 Coeff:     -0.377D-04-0.134D-03 0.888D-04-0.100D-04 0.101D-03-0.404D-04
 Coeff:     -0.114D-03 0.838D-03-0.310D-03-0.339D-02-0.287D-02 0.227D-01
 Coeff:      0.423D-01-0.583D+00 0.152D+01
 Gap=     0.081 Goal=   None    Shift=    0.000
 RMSDP=2.85D-08 MaxDP=3.35D-07 DE=-1.88D-12 OVMax= 6.65D-07

 Cycle  34  Pass 1  IDiag  3:
 E=-0.400842793747813     Delta-E=       -0.000000000000 Rises=F Damp=F
 DIIS: error= 8.45D-09 at cycle  34 NSaved=  16.
 NSaved=16 IEnMin=16 EnMin=-0.400842793747813     IErMin=16 ErrMin= 8.45D-09
 ErrMax= 8.45D-09  0.00D+00 EMaxC= 1.00D-01 BMatC= 5.32D-15 BMatP= 1.66D-14
 IDIUse=1 WtCom= 1.00D+00 WtEn= 0.00D+00
 Large coefficients: NSaved= 16 BigCof=    0.00 CofMax=   10.00 Det=-1.87D-15
 Inversion failed.  Reducing to 15 matrices.
 Coeff-Com:  0.422D-04-0.194D-04-0.111D-03-0.109D-03-0.121D-03 0.657D-03
 Coeff-Com:  0.277D-02-0.965D-02 0.942D-02 0.304D-03-0.984D-02 0.715D-01
 Coeff-Com: -0.145D+00-0.359D+00 0.144D+01
 Coeff:      0.422D-04-0.194D-04-0.111D-03-0.109D-03-0.121D-03 0.657D-03
 Coeff:      0.277D-02-0.965D-02 0.942D-02 0.304D-03-0.984D-02 0.715D-01
 Coeff:     -0.145D+00-0.359D+00 0.144D+01
 Gap=     0.081 Goal=   None    Shift=    0.000
 RMSDP=1.60D-08 MaxDP=1.73D-07 DE=-5.68D-14 OVMax= 4.81D-07

 Cycle  35  Pass 1  IDiag  1:
 E=-0.400842793748325     Delta-E=       -0.000000000001 Rises=F Damp=F
 DIIS: error= 5.18D-09 at cycle  35 NSaved=  16.
 NSaved=16 IEnMin=16 EnMin=-0.400842793748325     IErMin=16 ErrMin= 5.18D-09
 ErrMax= 5.18D-09  0.00D+00 EMaxC= 1.00D-01 BMatC= 1.82D-15 BMatP= 5.32D-15
 IDIUse=1 WtCom= 1.00D+00 WtEn= 0.00D+00
 Large coefficients: NSaved= 16 BigCof=    0.00 CofMax=   10.00 Det=-7.17D-16
 Inversion failed.  Reducing to 15 matrices.
 Coeff-Com:  0.367D-04 0.140D-03 0.285D-06-0.352D-03 0.244D-04 0.622D-03
 Coeff-Com: -0.188D-02-0.557D-03 0.267D-02 0.465D-02-0.559D-01 0.206D+00
 Coeff-Com: -0.340D+00-0.321D+00 0.150D+01
 Coeff:      0.367D-04 0.140D-03 0.285D-06-0.352D-03 0.244D-04 0.622D-03
 Coeff:     -0.188D-02-0.557D-03 0.267D-02 0.465D-02-0.559D-01 0.206D+00
 Coeff:     -0.340D+00-0.321D+00 0.150D+01
 RMSDP=1.39D-08 MaxDP=1.46D-07 DE=-5.12D-13 OVMax= 4.81D-07

 Cycle  36  Pass 1  IDiag  3:
 E=-0.400842793747529     Delta-E=        0.000000000001 Rises=F Damp=F
 DIIS: error= 2.64D-09 at cycle  36 NSaved=  16.
 NSaved=16 IEnMin=15 EnMin=-0.400842793748325     IErMin=16 ErrMin= 2.64D-09
 ErrMax= 2.64D-09  0.00D+00 EMaxC= 1.00D-01 BMatC= 5.57D-16 BMatP= 1.82D-15
 IDIUse=1 WtCom= 1.00D+00 WtEn= 0.00D+00
 Large coefficients: NSaved= 16 BigCof=    0.00 CofMax=   10.00 Det=-1.69D-16
 Inversion failed.  Reducing to 15 matrices.
 Coeff-Com: -0.392D-04 0.345D-04-0.263D-04 0.117D-03 0.376D-03-0.132D-02
 Coeff-Com:  0.334D-02-0.510D-02 0.336D-02-0.172D-03-0.474D-01 0.245D+00
 Coeff-Com: -0.285D+00-0.614D+00 0.170D+01
 Coeff:     -0.392D-04 0.345D-04-0.263D-04 0.117D-03 0.376D-03-0.132D-02
 Coeff:      0.334D-02-0.510D-02 0.336D-02-0.172D-03-0.474D-01 0.245D+00
 Coeff:     -0.285D+00-0.614D+00 0.170D+01
 Gap=     0.080 Goal=   None    Shift=    0.000
 RMSDP=1.05D-08 MaxDP=1.08D-07 DE= 7.96D-13 OVMax= 2.83D-07

 Cycle  37  Pass 1  IDiag  3:
 E=-0.400842793748211     Delta-E=       -0.000000000001 Rises=F Damp=F
 DIIS: error= 1.56D-09 at cycle  37 NSaved=  16.
 NSaved=16 IEnMin=14 EnMin=-0.400842793748325     IErMin=16 ErrMin= 1.56D-09
 ErrMax= 1.56D-09  0.00D+00 EMaxC= 1.00D-01 BMatC= 1.80D-16 BMatP= 5.57D-16
 IDIUse=1 WtCom= 1.00D+00 WtEn= 0.00D+00
 Large coefficients: NSaved= 16 BigCof=    0.00 CofMax=   10.00 Det=-3.06D-17
 Inversion failed.  Reducing to 15 matrices.
 Coeff-Com: -0.713D-04 0.403D-04 0.174D-03 0.325D-03-0.154D-02 0.113D-02
 Coeff-Com:  0.924D-03 0.333D-03-0.417D-02 0.176D-02-0.240D-01 0.146D+00
 Coeff-Com: -0.764D-01-0.646D+00 0.160D+01
 Coeff:     -0.713D-04 0.403D-04 0.174D-03 0.325D-03-0.154D-02 0.113D-02
 Coeff:      0.924D-03 0.333D-03-0.417D-02 0.176D-02-0.240D-01 0.146D+00
 Coeff:     -0.764D-01-0.646D+00 0.160D+01
 Gap=     0.080 Goal=   None    Shift=    0.000
 RMSDP=5.76D-09 MaxDP=5.14D-08 DE=-6.82D-13 OVMax= 1.69D-07

 Cycle  38  Pass 2  IDiag  1:
 SCF Done:  E(RPM6) = -0.400842793748     A.U. after   38 cycles
            NFock= 37  Conv=0.58D-08     -V/T= 0.9972
 KE=-1.447086654531D+02 PE=-6.878577558502D+02 EE= 3.734555781430D+02
 Leave Link  502 at Fri Jan  7 12:01:11 2022, MaxMem=   402653184 cpu:             267.2 elap:              47.7
 (Enter /work/01114/jfonner/frontera/gaussian/16rC.01/g16/l601.exe)
 Copying SCF densities to generalized density rwf, IOpCl= 0 IROHF=0.

 **********************************************************************

            Population analysis using the SCF Density.

 **********************************************************************

 Alpha  occ. eigenvalues --   -1.84578  -1.77564  -1.75018  -1.72002  -1.68689
 Alpha  occ. eigenvalues --   -1.63213  -1.60841  -1.55033  -1.49327  -1.42528
 Alpha  occ. eigenvalues --   -1.37454  -1.32577  -1.28698  -1.23887  -1.22652
 Alpha  occ. eigenvalues --   -1.20103  -1.18874  -1.16636  -1.13427  -1.12588
 Alpha  occ. eigenvalues --   -1.11224  -1.09476  -1.08738  -1.06692  -1.05420
 Alpha  occ. eigenvalues --   -1.04379  -1.02426  -0.99560  -0.99116  -0.95863
 Alpha  occ. eigenvalues --   -0.93434  -0.92763  -0.92578  -0.85406
 Alpha virt. eigenvalues --   -0.77379  -0.66321  -0.66150  -0.63155  -0.62316
 Alpha virt. eigenvalues --   -0.61440  -0.60522  -0.59338  -0.57491  -0.57270
 Alpha virt. eigenvalues --   -0.55131  -0.53099  -0.50609  -0.49791  -0.48508
 Alpha virt. eigenvalues --   -0.47982  -0.47445  -0.46184  -0.45699  -0.44809
 Alpha virt. eigenvalues --   -0.44517  -0.42484  -0.40780  -0.40602  -0.38588
 Alpha virt. eigenvalues --   -0.36074  -0.35817  -0.32533  -0.24349
          Condensed to atoms (all electrons):
               1          2          3          4          5          6
     1  C    3.665290   0.000000   0.000000   0.000000   0.000000   0.000000
     2  O    0.000000   6.080595   0.000000   0.000000   0.000000   0.000000
     3  N    0.000000   0.000000   5.132517   0.000000   0.000000   0.000000
     4  C    0.000000   0.000000   0.000000   3.450886   0.000000   0.000000
     5  C    0.000000   0.000000   0.000000   0.000000   3.596796   0.000000
     6  O    0.000000   0.000000   0.000000   0.000000   0.000000   6.175546
     7  N    0.000000   0.000000   0.000000   0.000000   0.000000   0.000000
     8  C    0.000000   0.000000   0.000000   0.000000   0.000000   0.000000
     9  C    0.000000   0.000000   0.000000   0.000000   0.000000   0.000000
    10  O    0.000000   0.000000   0.000000   0.000000   0.000000   0.000000
    11  N    0.000000   0.000000   0.000000   0.000000   0.000000   0.000000
    12  C    0.000000   0.000000   0.000000   0.000000   0.000000   0.000000
    13  C    0.000000   0.000000   0.000000   0.000000   0.000000   0.000000
    14  C    0.000000   0.000000   0.000000   0.000000   0.000000   0.000000
    15  C    0.000000   0.000000   0.000000   0.000000   0.000000   0.000000
    16  H    0.000000   0.000000   0.000000   0.000000   0.000000   0.000000
    17  H    0.000000   0.000000   0.000000   0.000000   0.000000   0.000000
    18  H    0.000000   0.000000   0.000000   0.000000   0.000000   0.000000
               7          8          9         10         11         12
     1  C    0.000000   0.000000   0.000000   0.000000   0.000000   0.000000
     2  O    0.000000   0.000000   0.000000   0.000000   0.000000   0.000000
     3  N    0.000000   0.000000   0.000000   0.000000   0.000000   0.000000
     4  C    0.000000   0.000000   0.000000   0.000000   0.000000   0.000000
     5  C    0.000000   0.000000   0.000000   0.000000   0.000000   0.000000
     6  O    0.000000   0.000000   0.000000   0.000000   0.000000   0.000000
     7  N    5.393473   0.000000   0.000000   0.000000   0.000000   0.000000
     8  C    0.000000   3.550563   0.000000   0.000000   0.000000   0.000000
     9  C    0.000000   0.000000   3.811372   0.000000   0.000000   0.000000
    10  O    0.000000   0.000000   0.000000   5.890094   0.000000   0.000000
    11  N    0.000000   0.000000   0.000000   0.000000   4.820458   0.000000
    12  C    0.000000   0.000000   0.000000   0.000000   0.000000   3.563579
    13  C    0.000000   0.000000   0.000000   0.000000   0.000000   0.000000
    14  C    0.000000   0.000000   0.000000   0.000000   0.000000   0.000000
    15  C    0.000000   0.000000   0.000000   0.000000   0.000000   0.000000
    16  H    0.000000   0.000000   0.000000   0.000000   0.000000   0.000000
    17  H    0.000000   0.000000   0.000000   0.000000   0.000000   0.000000
    18  H    0.000000   0.000000   0.000000   0.000000   0.000000   0.000000
              13         14         15         16         17         18
     1  C    0.000000   0.000000   0.000000   0.000000   0.000000   0.000000
     2  O    0.000000   0.000000   0.000000   0.000000   0.000000   0.000000
     3  N    0.000000   0.000000   0.000000   0.000000   0.000000   0.000000
     4  C    0.000000   0.000000   0.000000   0.000000   0.000000   0.000000
     5  C    0.000000   0.000000   0.000000   0.000000   0.000000   0.000000
     6  O    0.000000   0.000000   0.000000   0.000000   0.000000   0.000000
     7  N    0.000000   0.000000   0.000000   0.000000   0.000000   0.000000
     8  C    0.000000   0.000000   0.000000   0.000000   0.000000   0.000000
     9  C    0.000000   0.000000   0.000000   0.000000   0.000000   0.000000
    10  O    0.000000   0.000000   0.000000   0.000000   0.000000   0.000000
    11  N    0.000000   0.000000   0.000000   0.000000   0.000000   0.000000
    12  C    0.000000   0.000000   0.000000   0.000000   0.000000   0.000000
    13  C    5.064089   0.000000   0.000000   0.000000   0.000000   0.000000
    14  C    0.000000   2.861107   0.000000   0.000000   0.000000   0.000000
    15  C    0.000000   0.000000   3.021686   0.000000   0.000000   0.000000
    16  H    0.000000   0.000000   0.000000   0.637434   0.000000   0.000000
    17  H    0.000000   0.000000   0.000000   0.000000   0.727008   0.000000
    18  H    0.000000   0.000000   0.000000   0.000000   0.000000   0.557505
 Mulliken charges:
               1
     1  C    0.334710
     2  O   -0.080595
     3  N   -0.132517
     4  C    0.549114
     5  C    0.403204
     6  O   -0.175546
     7  N   -0.393473
     8  C    0.449437
     9  C    0.188628
    10  O    0.109906
    11  N    0.179542
    12  C    0.436421
    13  C   -1.064089
    14  C    1.138893
    15  C    0.978314
    16  H    0.362566
    17  H    0.272992
    18  H    0.442495
 Sum of Mulliken charges =   4.00000
 Mulliken charges with hydrogens summed into heavy atoms:
               1
     1  C    0.697276
     2  O   -0.080595
     3  N   -0.132517
     4  C    0.549114
     5  C    0.403204
     6  O   -0.175546
     7  N   -0.393473
     8  C    0.449437
     9  C    0.188628
    10  O    0.109906
    11  N    0.179542
    12  C    1.151908
    13  C   -1.064089
    14  C    1.138893
    15  C    0.978314
 Charge=              4.0000 electrons
 Dipole moment (field-independent basis, Debye):
    X=             56.4044    Y=             10.2773    Z=            254.3274  Tot=            260.7096
 N-N= 4.587100003665D+02 E-N=-6.878577559842D+02  KE=-1.447086654531D+02
 Leave Link  601 at Fri Jan  7 12:01:12 2022, MaxMem=   402653184 cpu:               2.4 elap:               0.6
 (Enter /work/01114/jfonner/frontera/gaussian/16rC.01/g16/l9999.exe)

 Test job not archived.
 1\1\GINC-C208-012\SP\RPM6\ZDO\C9H3N3O3(4+)\SA748948\07-Jan-2022\0\\#p 
 int=acc2e=12 pm6 charge nosymm\\Atom number=18\\4,1\C,0,3.91099259,0.2
 5801709,8.22899215\O,0,4.06399693,1.47799802,8.227997\N,0,4.3639906,-0
 .5269912,9.18900777\C,0,5.06699613,0.01999652,10.32599226\C,0,4.271001
 7,0.81698251,11.29599614\O,0,4.35898767,2.03299404,11.3669919\N,0,3.49
 199258,0.10401098,12.0729888\C,0,2.58498638,0.67698929,13.08500481\C,0
 ,3.00599759,0.04699653,14.36101452\O,0,2.95799299,-1.16900433,14.51500
 215\N,0,3.48100165,0.88700141,15.26198797\C,0,4.16300283,0.39199376,16
 .44199186\C,0,1.12699955,0.32999747,12.82699481\C,0,0.24799631,0.67499
 356,14.03798795\C,0,0.67399001,1.04700146,11.59600452\H,0,3.39884455,-
 0.23066685,7.42662541\H,0,3.64026224,0.79730636,17.28304119\H,0,5.2040
 8581,0.63640746,16.40582324\\Version=ES64L-G16RevC.01\HF=-0.4008428\RM
 SD=5.760e-09\Dipole=-2.7344624,0.4080978,7.9679281\PG=C01 [X(C9H3N3O3)
 ]\\@


 THE ONLY TROUBLE WITH A SURE THING IS THE UNCERTAINTY.
     -- FROM A TEABAG (BELONGING TO W.H.?)
 Job cpu time:       0 days  0 hours  5 minutes 31.7 seconds.
 Elapsed time:       0 days  0 hours  0 minutes 59.5 seconds.
 File lengths (MBytes):  RWF=      6 Int=      0 D2E=      0 Chk=      2 Scr=      1
 Normal termination of Gaussian 16 at Fri Jan  7 12:01:12 2022.
