Atom number=21                                                          
SP        RPM6                                                        ZDO                 
Number of atoms                            I               21
Info1-9                                    I   N=           9
          81          80           0           0           0         111
           1           8        2302
Full Title                                 C   N=           2
Atom number=21          
Route                                      C   N=           3
#p int=acc2e=12 pm6 charge nosymm   
Charge                                     I                3
Multiplicity                               I                1
Number of electrons                        I               80
Number of alpha electrons                  I               40
Number of beta electrons                   I               40
Number of basis functions                  I               72
Number of independent functions            I               72
Number of point charges in /Mol/           I                0
Number of translation vectors              I                0
Atomic numbers                             I   N=          21
           6           8           7           6           6           8
           7           6           6           6           6           8
           7           6           6           8           6           1
           1           1           1
Nuclear charges                            R   N=          21
  4.00000000E+00  6.00000000E+00  5.00000000E+00  4.00000000E+00  4.00000000E+00
  6.00000000E+00  5.00000000E+00  4.00000000E+00  4.00000000E+00  4.00000000E+00
  4.00000000E+00  6.00000000E+00  5.00000000E+00  4.00000000E+00  4.00000000E+00
  6.00000000E+00  4.00000000E+00  1.00000000E+00  1.00000000E+00  1.00000000E+00
  1.00000000E+00
Current cartesian coordinates              R   N=          63
  8.07102349E+00  1.54387319E+00  2.13463390E+01  8.23729288E+00  3.84180195E+00
  2.14805016E+01  6.59890961E+00  1.96552266E-01  2.28146423E+01  4.88491629E+00
  1.27932435E+00  2.47270754E+01  5.68051218E+00  8.88105705E-02  2.71383843E+01
  5.58979663E+00 -2.20909802E+00  2.74293788E+01  6.57813976E+00  1.67618974E+00
  2.88409774E+01  7.86693520E+00  7.40760849E-01  3.10708616E+01  2.12972049E+00
  6.23604840E-01  2.42395072E+01  4.68645106E-01  1.27555296E+00  2.65279526E+01
  6.47042229E+00  1.82356233E+00  3.33177433E+01  5.92618759E+00  3.98732110E+00
  3.32818450E+01  5.99611037E+00  2.43768982E-01  3.52377220E+01  4.83581805E+00
  9.75114686E-01  3.76112468E+01  1.07487535E+01  1.41732160E+00  3.09707433E+01
  1.18372435E+01  2.45675281E-01  2.87918563E+01  1.21320377E+01  3.96844508E-01
  3.32005837E+01  9.15376774E+00  4.59780193E-01  2.00269000E+01  1.51696771E+00
  1.59344354E+00  2.25744369E+01  5.89805766E+00  1.18303526E-01  3.91032367E+01
  2.94698360E+00  2.61315316E-01  3.77175812E+01
Number of symbols in /Mol/                 I                0
Int Atom Types                             I   N=          21
           0           0           0           0           0           0
           0           0           0           0           0           0
           0           0           0           0           0           0
           0           0           0
Force Field                                I                0
Atom Types                                 C   N=          21
                                                            
                                                            
                                                            
                                                            
            
MM charges                                 R   N=          21
  0.00000000E+00  0.00000000E+00  0.00000000E+00  0.00000000E+00  0.00000000E+00
  0.00000000E+00  0.00000000E+00  0.00000000E+00  0.00000000E+00  0.00000000E+00
  0.00000000E+00  0.00000000E+00  0.00000000E+00  0.00000000E+00  0.00000000E+00
  0.00000000E+00  0.00000000E+00  0.00000000E+00  0.00000000E+00  0.00000000E+00
  0.00000000E+00
Integer atomic weights                     I   N=          21
          12          16          14          12          12          16
          14          12          12          12          12          16
          14          12          12          16          12           1
           1           1           1
Real atomic weights                        R   N=          21
  1.20000000E+01  1.59949146E+01  1.40030740E+01  1.20000000E+01  1.20000000E+01
  1.59949146E+01  1.40030740E+01  1.20000000E+01  1.20000000E+01  1.20000000E+01
  1.20000000E+01  1.59949146E+01  1.40030740E+01  1.20000000E+01  1.20000000E+01
  1.59949146E+01  1.20000000E+01  1.00782504E+00  1.00782504E+00  1.00782504E+00
  1.00782504E+00
Atom fragment info                         I   N=          21
           0           0           0           0           0           0
           0           0           0           0           0           0
           0           0           0           0           0           0
           0           0           0
Atom residue num                           I   N=          21
           0           0           0           0           0           0
           0           0           0           0           0           0
           0           0           0           0           0           0
           0           0           0
Nuclear spins                              I   N=          21
           0           0           2           0           0           0
           2           0           0           0           0           0
           2           0           0           0           0           1
           1           1           1
Nuclear ZEff                               R   N=          21
 -3.90000000E+00 -6.00000000E+00 -4.90000000E+00 -3.90000000E+00 -3.90000000E+00
 -6.00000000E+00 -4.90000000E+00 -3.90000000E+00 -3.90000000E+00 -3.90000000E+00
 -3.90000000E+00 -6.00000000E+00 -4.90000000E+00 -3.90000000E+00 -3.90000000E+00
 -6.00000000E+00 -3.90000000E+00 -1.00000000E+00 -1.00000000E+00 -1.00000000E+00
 -1.00000000E+00
Nuclear ZNuc                               R   N=          21
  6.00000000E+00  8.00000000E+00  7.00000000E+00  6.00000000E+00  6.00000000E+00
  8.00000000E+00  7.00000000E+00  6.00000000E+00  6.00000000E+00  6.00000000E+00
  6.00000000E+00  8.00000000E+00  7.00000000E+00  6.00000000E+00  6.00000000E+00
  8.00000000E+00  6.00000000E+00  1.00000000E+00  1.00000000E+00  1.00000000E+00
  1.00000000E+00
Nuclear QMom                               R   N=          21
  0.00000000E+00  0.00000000E+00  2.04400000E+00  0.00000000E+00  0.00000000E+00
  0.00000000E+00  2.04400000E+00  0.00000000E+00  0.00000000E+00  0.00000000E+00
  0.00000000E+00  0.00000000E+00  2.04400000E+00  0.00000000E+00  0.00000000E+00
  0.00000000E+00  0.00000000E+00  0.00000000E+00  0.00000000E+00  0.00000000E+00
  0.00000000E+00
Nuclear GFac                               R   N=          21
  0.00000000E+00  0.00000000E+00  4.03761000E-01  0.00000000E+00  0.00000000E+00
  0.00000000E+00  4.03761000E-01  0.00000000E+00  0.00000000E+00  0.00000000E+00
  0.00000000E+00  0.00000000E+00  4.03761000E-01  0.00000000E+00  0.00000000E+00
  0.00000000E+00  0.00000000E+00  2.79284600E+00  2.79284600E+00  2.79284600E+00
  2.79284600E+00
MicOpt                                     I   N=          21
          -1          -1          -1          -1          -1          -1
          -1          -1          -1          -1          -1          -1
          -1          -1          -1          -1          -1          -1
          -1          -1          -1
Number of residues                         I                0
Number of secondary structures             I                0
Number of contracted shells                I               21
Number of primitive shells                 I              126
Pure/Cartesian d shells                    I                0
Pure/Cartesian f shells                    I                0
Highest angular momentum                   I                1
Largest degree of contraction              I                6
Shell types                                I   N=          21
          -1          -1          -1          -1          -1          -1
          -1          -1          -1          -1          -1          -1
          -1          -1          -1          -1          -1           0
           0           0           0
Number of primitives per shell             I   N=          21
           6           6           6           6           6           6
           6           6           6           6           6           6
           6           6           6           6           6           6
           6           6           6
Shell to atom map                          I   N=          21
           1           2           3           4           5           6
           7           8           9          10          11          12
          13          14          15          16          17          18
          19          20          21
Primitive exponents                        R   N=         126
  1.14476344E+01  3.29633588E+00  1.29653143E+00  5.92558930E-01  2.94896438E-01
  1.51447622E-01  8.02643074E+01  2.31120341E+01  9.09054165E+00  4.15468650E+00
  2.06764625E+00  1.06186467E+00  1.54719623E+01  4.45513742E+00  1.75231709E+00
  8.00868468E-01  3.98565014E-01  2.04687870E-01  1.14476344E+01  3.29633588E+00
  1.29653143E+00  5.92558930E-01  2.94896438E-01  1.51447622E-01  1.14476344E+01
  3.29633588E+00  1.29653143E+00  5.92558930E-01  2.94896438E-01  1.51447622E-01
  8.02643074E+01  2.31120341E+01  9.09054165E+00  4.15468650E+00  2.06764625E+00
  1.06186467E+00  1.54719623E+01  4.45513742E+00  1.75231709E+00  8.00868468E-01
  3.98565014E-01  2.04687870E-01  1.14476344E+01  3.29633588E+00  1.29653143E+00
  5.92558930E-01  2.94896438E-01  1.51447622E-01  1.14476344E+01  3.29633588E+00
  1.29653143E+00  5.92558930E-01  2.94896438E-01  1.51447622E-01  1.14476344E+01
  3.29633588E+00  1.29653143E+00  5.92558930E-01  2.94896438E-01  1.51447622E-01
  1.14476344E+01  3.29633588E+00  1.29653143E+00  5.92558930E-01  2.94896438E-01
  1.51447622E-01  8.02643074E+01  2.31120341E+01  9.09054165E+00  4.15468650E+00
  2.06764625E+00  1.06186467E+00  1.54719623E+01  4.45513742E+00  1.75231709E+00
  8.00868468E-01  3.98565014E-01  2.04687870E-01  1.14476344E+01  3.29633588E+00
  1.29653143E+00  5.92558930E-01  2.94896438E-01  1.51447622E-01  1.14476344E+01
  3.29633588E+00  1.29653143E+00  5.92558930E-01  2.94896438E-01  1.51447622E-01
  8.02643074E+01  2.31120341E+01  9.09054165E+00  4.15468650E+00  2.06764625E+00
  1.06186467E+00  1.14476344E+01  3.29633588E+00  1.29653143E+00  5.92558930E-01
  2.94896438E-01  1.51447622E-01  4.39461478E+00  1.26542531E+00  4.97723458E-01
  2.27476537E-01  1.13207340E-01  5.81389949E-02  4.39461478E+00  1.26542531E+00
  4.97723458E-01  2.27476537E-01  1.13207340E-01  5.81389949E-02  4.39461478E+00
  1.26542531E+00  4.97723458E-01  2.27476537E-01  1.13207340E-01  5.81389949E-02
  4.39461478E+00  1.26542531E+00  4.97723458E-01  2.27476537E-01  1.13207340E-01
  5.81389949E-02
Contraction coefficients                   R   N=         126
 -9.73739553E-03 -7.26587678E-02 -1.71615520E-01  1.28977624E-01  7.28861451E-01
  3.01331742E-01 -9.73739553E-03 -7.26587678E-02 -1.71615520E-01  1.28977624E-01
  7.28861451E-01  3.01331742E-01 -9.73739553E-03 -7.26587678E-02 -1.71615520E-01
  1.28977624E-01  7.28861451E-01  3.01331742E-01 -9.73739553E-03 -7.26587678E-02
 -1.71615520E-01  1.28977624E-01  7.28861451E-01  3.01331742E-01 -9.73739553E-03
 -7.26587678E-02 -1.71615520E-01  1.28977624E-01  7.28861451E-01  3.01331742E-01
 -9.73739553E-03 -7.26587678E-02 -1.71615520E-01  1.28977624E-01  7.28861451E-01
  3.01331742E-01 -9.73739553E-03 -7.26587678E-02 -1.71615520E-01  1.28977624E-01
  7.28861451E-01  3.01331742E-01 -9.73739553E-03 -7.26587678E-02 -1.71615520E-01
  1.28977624E-01  7.28861451E-01  3.01331742E-01 -9.73739553E-03 -7.26587678E-02
 -1.71615520E-01  1.28977624E-01  7.28861451E-01  3.01331742E-01 -9.73739553E-03
 -7.26587678E-02 -1.71615520E-01  1.28977624E-01  7.28861451E-01  3.01331742E-01
 -9.73739553E-03 -7.26587678E-02 -1.71615520E-01  1.28977624E-01  7.28861451E-01
  3.01331742E-01 -9.73739553E-03 -7.26587678E-02 -1.71615520E-01  1.28977624E-01
  7.28861451E-01  3.01331742E-01 -9.73739553E-03 -7.26587678E-02 -1.71615520E-01
  1.28977624E-01  7.28861451E-01  3.01331742E-01 -9.73739553E-03 -7.26587678E-02
 -1.71615520E-01  1.28977624E-01  7.28861451E-01  3.01331742E-01 -9.73739553E-03
 -7.26587678E-02 -1.71615520E-01  1.28977624E-01  7.28861451E-01  3.01331742E-01
 -9.73739553E-03 -7.26587678E-02 -1.71615520E-01  1.28977624E-01  7.28861451E-01
  3.01331742E-01 -9.73739553E-03 -7.26587678E-02 -1.71615520E-01  1.28977624E-01
  7.28861451E-01  3.01331742E-01 -9.73739553E-03 -7.26587678E-02 -1.71615520E-01
  1.28977624E-01  7.28861451E-01  3.01331742E-01 -9.73739553E-03 -7.26587678E-02
 -1.71615520E-01  1.28977624E-01  7.28861451E-01  3.01331742E-01 -9.73739553E-03
 -7.26587678E-02 -1.71615520E-01  1.28977624E-01  7.28861451E-01  3.01331742E-01
 -9.73739553E-03 -7.26587678E-02 -1.71615520E-01  1.28977624E-01  7.28861451E-01
  3.01331742E-01
P(S=P) Contraction coefficients            R   N=         126
 -8.10494336E-03 -1.71547892E-02  7.36978576E-02  3.96514999E-01  4.97808488E-01
  1.17482582E-01 -8.10494336E-03 -1.71547892E-02  7.36978576E-02  3.96514999E-01
  4.97808488E-01  1.17482582E-01 -8.10494336E-03 -1.71547892E-02  7.36978576E-02
  3.96514999E-01  4.97808488E-01  1.17482582E-01 -8.10494336E-03 -1.71547892E-02
  7.36978576E-02  3.96514999E-01  4.97808488E-01  1.17482582E-01 -8.10494336E-03
 -1.71547892E-02  7.36978576E-02  3.96514999E-01  4.97808488E-01  1.17482582E-01
 -8.10494336E-03 -1.71547892E-02  7.36978576E-02  3.96514999E-01  4.97808488E-01
  1.17482582E-01 -8.10494336E-03 -1.71547892E-02  7.36978576E-02  3.96514999E-01
  4.97808488E-01  1.17482582E-01 -8.10494336E-03 -1.71547892E-02  7.36978576E-02
  3.96514999E-01  4.97808488E-01  1.17482582E-01 -8.10494336E-03 -1.71547892E-02
  7.36978576E-02  3.96514999E-01  4.97808488E-01  1.17482582E-01 -8.10494336E-03
 -1.71547892E-02  7.36978576E-02  3.96514999E-01  4.97808488E-01  1.17482582E-01
 -8.10494336E-03 -1.71547892E-02  7.36978576E-02  3.96514999E-01  4.97808488E-01
  1.17482582E-01 -8.10494336E-03 -1.71547892E-02  7.36978576E-02  3.96514999E-01
  4.97808488E-01  1.17482582E-01 -8.10494336E-03 -1.71547892E-02  7.36978576E-02
  3.96514999E-01  4.97808488E-01  1.17482582E-01 -8.10494336E-03 -1.71547892E-02
  7.36978576E-02  3.96514999E-01  4.97808488E-01  1.17482582E-01 -8.10494336E-03
 -1.71547892E-02  7.36978576E-02  3.96514999E-01  4.97808488E-01  1.17482582E-01
 -8.10494336E-03 -1.71547892E-02  7.36978576E-02  3.96514999E-01  4.97808488E-01
  1.17482582E-01 -8.10494336E-03 -1.71547892E-02  7.36978576E-02  3.96514999E-01
  4.97808488E-01  1.17482582E-01  0.00000000E+00  0.00000000E+00  0.00000000E+00
  0.00000000E+00  0.00000000E+00  0.00000000E+00  0.00000000E+00  0.00000000E+00
  0.00000000E+00  0.00000000E+00  0.00000000E+00  0.00000000E+00  0.00000000E+00
  0.00000000E+00  0.00000000E+00  0.00000000E+00  0.00000000E+00  0.00000000E+00
  0.00000000E+00  0.00000000E+00  0.00000000E+00  0.00000000E+00  0.00000000E+00
  0.00000000E+00
Coordinates of each shell                  R   N=          63
  8.07102349E+00  1.54387319E+00  2.13463390E+01  8.23729288E+00  3.84180195E+00
  2.14805016E+01  6.59890961E+00  1.96552266E-01  2.28146423E+01  4.88491629E+00
  1.27932435E+00  2.47270754E+01  5.68051218E+00  8.88105705E-02  2.71383843E+01
  5.58979663E+00 -2.20909802E+00  2.74293788E+01  6.57813976E+00  1.67618974E+00
  2.88409774E+01  7.86693520E+00  7.40760849E-01  3.10708616E+01  2.12972049E+00
  6.23604840E-01  2.42395072E+01  4.68645106E-01  1.27555296E+00  2.65279526E+01
  6.47042229E+00  1.82356233E+00  3.33177433E+01  5.92618759E+00  3.98732110E+00
  3.32818450E+01  5.99611037E+00  2.43768982E-01  3.52377220E+01  4.83581805E+00
  9.75114686E-01  3.76112468E+01  1.07487535E+01  1.41732160E+00  3.09707433E+01
  1.18372435E+01  2.45675281E-01  2.87918563E+01  1.21320377E+01  3.96844508E-01
  3.32005837E+01  9.15376774E+00  4.59780193E-01  2.00269000E+01  1.51696771E+00
  1.59344354E+00  2.25744369E+01  5.89805766E+00  1.18303526E-01  3.91032367E+01
  2.94698360E+00  2.61315316E-01  3.77175812E+01
Num ILSW                                   I              100
ILSW                                       I   N=         100
           0           0           0           0           2           0
           0           0           0           0           0          -1
           5           0           0           0           0           0
           0           0           0           0           0           0
           1           1           0           0           0           0
           0           0      100000           0          -1           0
           0           0           0           0           0           0
           0           0           0          40           0           0
           0 -2000000000           1           0           0           0
           0           0           4          52           0           0
           0           1           0           0           0           0
           0           0           0          21           0           1
           0           0           0           0           0           0
           0           0           0           0           0           0
           0           0           0           0           0           0
           0           0           0           0           0           0
           0           0           0           0
Num RLSW                                   I               52
RLSW                                       R   N=          52
  1.00000000E+00  1.00000000E+00  1.00000000E+00  1.00000000E+00  1.00000000E+00
  0.00000000E+00  0.00000000E+00  1.00000000E+00  0.00000000E+00  0.00000000E+00
  0.00000000E+00  0.00000000E+00  1.00000000E+00  0.00000000E+00  0.00000000E+00
  0.00000000E+00  0.00000000E+00  1.00000000E+00  0.00000000E+00  0.00000000E+00
  0.00000000E+00  0.00000000E+00  1.00000000E+00  0.00000000E+00  0.00000000E+00
  0.00000000E+00  0.00000000E+00  1.00000000E+00  0.00000000E+00  0.00000000E+00
  0.00000000E+00  0.00000000E+00  1.00000000E+00  0.00000000E+00  0.00000000E+00
  0.00000000E+00  0.00000000E+00  0.00000000E+00  1.00000000E+00  1.00000000E+00
  0.00000000E+00  1.00000000E+00  0.00000000E+00  0.00000000E+00  0.00000000E+00
  0.00000000E+00  0.00000000E+00  0.00000000E+00  0.00000000E+00  0.00000000E+00
  0.00000000E+00  0.00000000E+00
MxBond                                     I                3
NBond                                      I   N=          21
           3           1           2           3           3           1
           2           3           3           1           3           1
           2           3           3           1           1           1
           1           1           1
IBond                                      I   N=          63
           2           3          18           1           0           0
           1           4           0           3           5           9
           4           6           7           5           0           0
           5           8           0           7          11          15
           4          10          19           9           0           0
           8          12          13          11           0           0
          11          14           0          13          20          21
           8          16          17          15           0           0
          15           0           0           1           0           0
           9           0           0          14           0           0
          14           0           0
RBond                                      R   N=          63
  2.00000000E+00  1.50000000E+00  1.00000000E+00  2.00000000E+00  0.00000000E+00
  0.00000000E+00  1.50000000E+00  1.00000000E+00  0.00000000E+00  1.00000000E+00
  1.00000000E+00  1.00000000E+00  1.00000000E+00  2.00000000E+00  1.50000000E+00
  2.00000000E+00  0.00000000E+00  0.00000000E+00  1.50000000E+00  1.00000000E+00
  0.00000000E+00  1.00000000E+00  1.00000000E+00  1.00000000E+00  1.00000000E+00
  1.00000000E+00  1.00000000E+00  1.00000000E+00  0.00000000E+00  0.00000000E+00
  1.00000000E+00  2.00000000E+00  1.50000000E+00  2.00000000E+00  0.00000000E+00
  0.00000000E+00  1.50000000E+00  1.00000000E+00  0.00000000E+00  1.00000000E+00
  1.00000000E+00  1.00000000E+00  1.00000000E+00  1.00000000E+00  1.00000000E+00
  1.00000000E+00  0.00000000E+00  0.00000000E+00  1.00000000E+00  0.00000000E+00
  0.00000000E+00  1.00000000E+00  0.00000000E+00  0.00000000E+00  1.00000000E+00
  0.00000000E+00  0.00000000E+00  1.00000000E+00  0.00000000E+00  0.00000000E+00
  1.00000000E+00  0.00000000E+00  0.00000000E+00
Virial Ratio                               R      1.000559853282576E+00
SCF Energy                                 R      9.547069738289338E-02
Total Energy                               R      9.547069738289338E-02
RMS Density                                R      9.491457079026621E-09
Job Status                                 I                1
Nuclear derivative order                   I                0
External E-field                           R   N=          35
  0.00000000E+00  0.00000000E+00  0.00000000E+00  0.00000000E+00  0.00000000E+00
  0.00000000E+00  0.00000000E+00  0.00000000E+00  0.00000000E+00  0.00000000E+00
  0.00000000E+00  0.00000000E+00  0.00000000E+00  0.00000000E+00  0.00000000E+00
  0.00000000E+00  0.00000000E+00  0.00000000E+00  0.00000000E+00  0.00000000E+00
  0.00000000E+00  0.00000000E+00  0.00000000E+00  0.00000000E+00  0.00000000E+00
  0.00000000E+00  0.00000000E+00  0.00000000E+00  0.00000000E+00  0.00000000E+00
  0.00000000E+00  0.00000000E+00  0.00000000E+00  0.00000000E+00  0.00000000E+00
IOpCl                                      I                0
IROHF                                      I                0
Alpha Orbital Energies                     R   N=          72
 -1.78071718E+00 -1.76387693E+00 -1.74889272E+00 -1.67256117E+00 -1.66297688E+00
 -1.65707179E+00 -1.63606319E+00 -1.61692953E+00 -1.55418496E+00 -1.49915970E+00
 -1.46883018E+00 -1.41523664E+00 -1.37246217E+00 -1.31172856E+00 -1.27502779E+00
 -1.25395866E+00 -1.18988007E+00 -1.17715105E+00 -1.16322707E+00 -1.14943726E+00
 -1.13652061E+00 -1.13144104E+00 -1.12380163E+00 -1.10584068E+00 -1.08491660E+00
 -1.06884748E+00 -1.06734973E+00 -1.05330619E+00 -1.04083725E+00 -1.02834799E+00
 -1.01389207E+00 -9.97736270E-01 -9.75470028E-01 -9.55011243E-01 -9.38115371E-01
 -9.33902233E-01 -9.23275453E-01 -8.98106543E-01 -8.95151686E-01 -8.29356296E-01
 -7.41925456E-01 -6.69928888E-01 -6.34398600E-01 -6.28948153E-01 -6.24003131E-01
 -6.21903293E-01 -5.76999985E-01 -5.76830114E-01 -5.67561271E-01 -5.63491133E-01
 -5.32031585E-01 -5.13408795E-01 -4.98089705E-01 -4.87176244E-01 -4.84859466E-01
 -4.77774564E-01 -4.76445892E-01 -4.67759333E-01 -4.62444172E-01 -4.56153473E-01
 -4.51428774E-01 -4.39686788E-01 -4.29397524E-01 -3.94513119E-01 -3.84311465E-01
 -3.83351139E-01 -3.68755284E-01 -3.65670883E-01 -3.58415943E-01 -3.46044253E-01
 -3.01195033E-01 -2.60979280E-01
Alpha MO coefficients                      R   N=        5184
  8.65928901E-03 -2.51117977E-03  1.31954255E-03  4.04874062E-03  6.50286697E-03
 -8.66222622E-04 -4.11801386E-03  6.47792080E-04  1.78178152E-02 -1.84600639E-03
  4.56075612E-03  6.86643939E-03  3.21102171E-02  7.22081745E-03 -1.12738881E-02
  1.70562006E-02  1.14403630E-01  1.34211445E-02 -1.09830318E-02  3.84941102E-02
  8.18898315E-02  5.34120925E-03  5.48938222E-02  1.58837747E-03  1.70177824E-01
  2.98505508E-03 -4.48958751E-02  3.59925288E-02  1.80079751E-01 -6.42128839E-02
  6.97715386E-02  3.78113041E-02  1.07977364E-02  6.85543121E-03  6.23842189E-04
  4.62668729E-03  4.58514754E-03  3.77753376E-03 -7.33193031E-04 -1.20893175E-03
  5.08932628E-01 -6.75989091E-02  2.38385927E-01  2.24388974E-02  6.15006777E-01
  7.74509758E-02 -3.08366469E-01  1.02688591E-02  2.48095888E-01  6.78161936E-05
  1.31630768E-01 -6.47815267E-02  7.47275187E-02  2.29658248E-02  3.93944915E-03
 -5.91590809E-02  4.36526964E-02 -4.08466393E-02 -5.66711170E-04  1.20191288E-02
 -4.16696423E-03 -5.86484006E-03  1.33427695E-03  2.59360527E-03  1.29945837E-02
 -1.22870035E-02  4.09428888E-03 -5.04881144E-03  2.00770784E-03  4.84818560E-03
  1.85911579E-02  2.04756622E-02  2.05483072E-01 -4.11971334E-02  5.06968332E-02
  6.17110938E-02  1.86663525E-01 -1.82627304E-02 -1.05632726E-01  8.68873192E-03
  2.55874626E-01  1.18090105E-03  8.53987237E-02  2.80253476E-02  2.47003292E-01
  5.30800076E-02 -7.39440441E-02  4.25439259E-02  4.94225143E-01  2.20861812E-02
 -1.07984817E-01  5.48086219E-02  4.27228831E-01  1.59886192E-02  2.54051274E-01
 -2.29856303E-02  3.53403769E-01 -3.21485835E-02 -1.53525755E-01 -7.17643520E-02
  9.72014641E-02 -3.37937257E-02 -6.38625233E-03 -9.83772130E-02  9.95736699E-02
  5.34456999E-02  1.05832484E-02  1.90463748E-02  3.43309897E-02  2.44779269E-02
 -4.80010410E-03 -1.37517780E-02 -9.88797056E-02  2.47703791E-02 -6.72889370E-02
 -4.20022893E-02 -1.53226526E-01 -1.58950922E-02  6.82823645E-02 -1.24709713E-02
 -6.97900335E-02  2.03254488E-03 -3.56946034E-02  8.39505941E-03 -2.59349993E-02
 -7.48059186E-03 -1.50109618E-04  1.78100532E-02  2.38052542E-02 -1.66650766E-02
 -9.18643295E-03 -1.65722356E-02  2.03954726E-02 -1.10782497E-02  3.93816185E-03
  7.38502925E-03 -2.99109743E-05 -1.28601718E-03 -6.54847098E-04 -3.17397381E-03
  5.48849817E-02  6.11716461E-02 -7.15883837E-03 -7.18471404E-03  4.75190248E-01
 -6.04796686E-02  1.64167142E-01  9.93237511E-02  5.09370276E-01 -3.69795750E-02
 -2.63536315E-01  9.14860282E-03  3.61980972E-01  6.68615267E-02  1.62277906E-01
 -6.67004737E-02  7.69715574E-02  5.08607337E-02  1.22158892E-02 -1.13013850E-01
 -2.11277553E-01 -1.54215086E-02  7.78235992E-02 -8.74839294E-02 -2.36064235E-01
 -9.02047694E-03 -1.25434584E-01 -2.05830444E-03 -1.95011512E-01  1.20864377E-02
  8.39030017E-02  1.64490201E-02 -7.16558181E-02  2.19194147E-02 -1.21479454E-03
  5.37837396E-02  2.26274141E-02  1.21139057E-02  1.02003088E-02 -2.20584662E-02
 -3.21482848E-03 -2.70897798E-03  1.73143011E-03 -3.28586768E-03  3.41036079E-02
 -1.34256406E-02  3.13717364E-02  2.64783017E-02  6.64228599E-02  5.37736004E-03
 -2.69539320E-02  7.98316712E-03  3.12906629E-02 -1.51574484E-03  1.57265310E-02
 -8.91982430E-04  1.32206236E-02  3.54771548E-03 -1.95044290E-04 -8.41310911E-03
 -2.05838512E-02  1.29764604E-02  6.40562037E-03  9.01847814E-03 -1.44434303E-02
  7.31729769E-03 -2.72131980E-03 -5.95085837E-03 -2.37514477E-03  2.15708286E-03
 -8.08071794E-05  3.01859281E-03  1.34864918E-01  3.51055935E-02  3.76199850E-03
  3.76291588E-03  4.20339737E-02  5.80094834E-02  1.43442618E-01 -3.91609310E-02
  2.59347921E-01  6.30781717E-03 -7.35751703E-02 -1.51971322E-02 -2.31849972E-01
  5.15956405E-02 -3.38014721E-02 -4.32131975E-02 -2.29801953E-01  3.16174080E-02
  7.15215228E-02  6.09839563E-02 -1.71294876E-02  1.02838681E-01  2.09471635E-01
  1.79331862E-01 -2.95893360E-01  2.29622743E-02 -7.48516251E-02  6.41592639E-02
  4.64264976E-01  3.96105819E-02 -1.02389460E-01  5.13654839E-02  3.00965799E-01
 -1.96318705E-02  5.02256620E-02 -1.07019925E-01 -2.34268629E-01 -4.31083606E-02
 -4.22971645E-02  6.00283875E-03 -8.88170172E-02 -3.79337335E-02  7.22429656E-03
  4.64283610E-02  8.51690179E-03  5.46639629E-02 -5.76741730E-02 -1.02889561E-01
 -1.02523936E-01  6.41841758E-03  2.22213515E-02 -3.31698112E-02 -8.03172542E-02
  1.53395813E-02 -3.15593300E-02 -2.27538379E-02 -5.22045485E-02 -1.08353939E-02
  5.11865947E-03  2.46259351E-02  2.04909636E-01 -3.96578336E-02 -5.89917264E-02
 -4.12881884E-02  1.98223798E-01 -4.83048158E-02  2.96291426E-02  7.17813310E-02
  7.39985713E-02 -3.03860955E-02  1.01732340E-02 -4.41040757E-02  1.15616101E-02
 -2.03534034E-01 -1.72233207E-02 -1.61545704E-02  3.29023759E-02  8.35607276E-02
  1.99066161E-01 -6.00776094E-02  3.50758260E-01  1.05407854E-02 -9.11796143E-02
 -2.24348873E-02 -3.13224468E-01  4.52878091E-02 -6.56455321E-02 -3.70610477E-02
 -3.08411157E-01  1.14858835E-02  2.65944270E-02  4.82157979E-02 -1.36201637E-02
 -1.57778861E-02 -3.03884567E-01  4.92940985E-02  4.64366196E-01  3.50531675E-03
  1.12068369E-01 -8.20278916E-03 -2.44681981E-01 -1.00803109E-03  2.44096509E-02
  2.23380576E-02 -1.12660801E-01  1.65388631E-03 -2.85926156E-02  4.79811874E-02
 -2.79948267E-01 -4.11297896E-02 -6.85894165E-02  1.50392747E-02 -1.10655858E-01
 -4.61702995E-02  4.03431846E-03  5.72273948E-02  1.12024995E-02 -2.14631927E-02
 -1.22778949E-02  5.91920427E-02 -1.28791084E-03 -6.02239365E-03 -3.63186810E-03
  1.80897598E-02  9.41154936E-02 -7.93271835E-03  2.65529751E-02  6.76615004E-03
  4.73338254E-02  1.05131295E-02 -6.04897813E-03 -2.30652679E-02 -9.30030119E-02
  1.11736297E-02  2.69722353E-02  2.23466640E-02 -1.03174633E-01  2.20432150E-02
 -1.50629226E-02 -3.47468490E-02 -3.40427617E-02  1.26494749E-02 -4.76596719E-03
  2.08900118E-02  7.25337907E-03 -2.60025060E-01  1.59172982E-02  1.46427574E-02
 -1.13807407E-03 -8.64117008E-03 -1.98852967E-02  6.26520725E-03 -3.39258386E-02
 -1.20426342E-03  8.14597487E-03  2.33521565E-03  3.23219825E-02 -3.69591448E-03
  6.85543341E-03  2.14642106E-03  2.67908448E-02 -1.13812616E-03 -2.49761466E-03
 -6.85906457E-03 -1.33574888E-03  2.18351503E-03  2.42960269E-02 -2.65441915E-03
 -4.04339893E-02 -4.38801567E-05 -1.02246593E-02  1.78428720E-03  1.65294545E-02
  3.22132590E-03 -1.01348172E-02  3.29412143E-03  9.22320228E-02 -4.50099216E-03