Atom number=11                                                          
SP        RPM6                                                        ZDO                 
Number of atoms                            I               11
Info1-9                                    I   N=           9
          80          79           0           0           0         111
           1           8        2302
Full Title                                 C   N=           2
Atom number=11          
Route                                      C   N=           3
#p int=acc2e=12 pm6 charge nosymm   
Charge                                     I                1
Multiplicity                               I                1
Number of electrons                        I               40
Number of alpha electrons                  I               20
Number of beta electrons                   I               20
Number of basis functions                  I               35
Number of independent functions            I               35
Number of point charges in /Mol/           I                0
Number of translation vectors              I                0
Atomic numbers                             I   N=          11
           6           8           7           6           6           8
           7           6           1           1           1
Nuclear charges                            R   N=          11
  4.00000000E+00  6.00000000E+00  5.00000000E+00  4.00000000E+00  4.00000000E+00
  6.00000000E+00  5.00000000E+00  4.00000000E+00  1.00000000E+00  1.00000000E+00
  1.00000000E+00
Current cartesian coordinates              R   N=          33
  7.39070487E+00  4.87581636E-01  1.55505414E+01  7.67984117E+00  2.79301147E+00
  1.55486609E+01  8.24674704E+00 -9.95869038E-01  1.73647080E+01  9.57523496E+00
  3.77879462E-02  1.95132973E+01  8.07102349E+00  1.54387319E+00  2.13463390E+01
  8.23729288E+00  3.84180195E+00  2.14805016E+01  6.59890961E+00  1.96552266E-01
  2.28146423E+01  4.88491629E+00  1.27932435E+00  2.47270754E+01  6.42288534E+00
 -4.35897173E-01  1.40342881E+01  5.45854901E+00  4.20951820E-01  2.64656536E+01
  2.94636732E+00  8.17961717E-01  2.43840236E+01
Number of symbols in /Mol/                 I                0
Int Atom Types                             I   N=          11
           0           0           0           0           0           0
           0           0           0           0           0
Force Field                                I                0
Atom Types                                 C   N=          11
                                                            
                                                            
            
MM charges                                 R   N=          11
  0.00000000E+00  0.00000000E+00  0.00000000E+00  0.00000000E+00  0.00000000E+00
  0.00000000E+00  0.00000000E+00  0.00000000E+00  0.00000000E+00  0.00000000E+00
  0.00000000E+00
Integer atomic weights                     I   N=          11
          12          16          14          12          12          16
          14          12           1           1           1
Real atomic weights                        R   N=          11
  1.20000000E+01  1.59949146E+01  1.40030740E+01  1.20000000E+01  1.20000000E+01
  1.59949146E+01  1.40030740E+01  1.20000000E+01  1.00782504E+00  1.00782504E+00
  1.00782504E+00
Atom fragment info                         I   N=          11
           0           0           0           0           0           0
           0           0           0           0           0
Atom residue num                           I   N=          11
           0           0           0           0           0           0
           0           0           0           0           0
Nuclear spins                              I   N=          11
           0           0           2           0           0           0
           2           0           1           1           1
Nuclear ZEff                               R   N=          11
 -3.90000000E+00 -6.00000000E+00 -4.90000000E+00 -3.90000000E+00 -3.90000000E+00
 -6.00000000E+00 -4.90000000E+00 -3.90000000E+00 -1.00000000E+00 -1.00000000E+00
 -1.00000000E+00
Nuclear ZNuc                               R   N=          11
  6.00000000E+00  8.00000000E+00  7.00000000E+00  6.00000000E+00  6.00000000E+00
  8.00000000E+00  7.00000000E+00  6.00000000E+00  1.00000000E+00  1.00000000E+00
  1.00000000E+00
Nuclear QMom                               R   N=          11
  0.00000000E+00  0.00000000E+00  2.04400000E+00  0.00000000E+00  0.00000000E+00
  0.00000000E+00  2.04400000E+00  0.00000000E+00  0.00000000E+00  0.00000000E+00
  0.00000000E+00
Nuclear GFac                               R   N=          11
  0.00000000E+00  0.00000000E+00  4.03761000E-01  0.00000000E+00  0.00000000E+00
  0.00000000E+00  4.03761000E-01  0.00000000E+00  2.79284600E+00  2.79284600E+00
  2.79284600E+00
MicOpt                                     I   N=          11
          -1          -1          -1          -1          -1          -1
          -1          -1          -1          -1          -1
Number of residues                         I                0
Number of secondary structures             I                0
Number of contracted shells                I               11
Number of primitive shells                 I               66
Pure/Cartesian d shells                    I                0
Pure/Cartesian f shells                    I                0
Highest angular momentum                   I                1
Largest degree of contraction              I                6
Shell types                                I   N=          11
          -1          -1          -1          -1          -1          -1
          -1          -1           0           0           0
Number of primitives per shell             I   N=          11
           6           6           6           6           6           6
           6           6           6           6           6
Shell to atom map                          I   N=          11
           1           2           3           4           5           6
           7           8           9          10          11
Primitive exponents                        R   N=          66
  1.14476344E+01  3.29633588E+00  1.29653143E+00  5.92558930E-01  2.94896438E-01
  1.51447622E-01  8.02643074E+01  2.31120341E+01  9.09054165E+00  4.15468650E+00
  2.06764625E+00  1.06186467E+00  1.54719623E+01  4.45513742E+00  1.75231709E+00
  8.00868468E-01  3.98565014E-01  2.04687870E-01  1.14476344E+01  3.29633588E+00
  1.29653143E+00  5.92558930E-01  2.94896438E-01  1.51447622E-01  1.14476344E+01
  3.29633588E+00  1.29653143E+00  5.92558930E-01  2.94896438E-01  1.51447622E-01
  8.02643074E+01  2.31120341E+01  9.09054165E+00  4.15468650E+00  2.06764625E+00
  1.06186467E+00  1.54719623E+01  4.45513742E+00  1.75231709E+00  8.00868468E-01
  3.98565014E-01  2.04687870E-01  1.14476344E+01  3.29633588E+00  1.29653143E+00
  5.92558930E-01  2.94896438E-01  1.51447622E-01  4.39461478E+00  1.26542531E+00
  4.97723458E-01  2.27476537E-01  1.13207340E-01  5.81389949E-02  4.39461478E+00
  1.26542531E+00  4.97723458E-01  2.27476537E-01  1.13207340E-01  5.81389949E-02
  4.39461478E+00  1.26542531E+00  4.97723458E-01  2.27476537E-01  1.13207340E-01
  5.81389949E-02
Contraction coefficients                   R   N=          66
 -9.73739553E-03 -7.26587678E-02 -1.71615520E-01  1.28977624E-01  7.28861451E-01
  3.01331742E-01 -9.73739553E-03 -7.26587678E-02 -1.71615520E-01  1.28977624E-01
  7.28861451E-01  3.01331742E-01 -9.73739553E-03 -7.26587678E-02 -1.71615520E-01
  1.28977624E-01  7.28861451E-01  3.01331742E-01 -9.73739553E-03 -7.26587678E-02
 -1.71615520E-01  1.28977624E-01  7.28861451E-01  3.01331742E-01 -9.73739553E-03
 -7.26587678E-02 -1.71615520E-01  1.28977624E-01  7.28861451E-01  3.01331742E-01
 -9.73739553E-03 -7.26587678E-02 -1.71615520E-01  1.28977624E-01  7.28861451E-01
  3.01331742E-01 -9.73739553E-03 -7.26587678E-02 -1.71615520E-01  1.28977624E-01
  7.28861451E-01  3.01331742E-01 -9.73739553E-03 -7.26587678E-02 -1.71615520E-01
  1.28977624E-01  7.28861451E-01  3.01331742E-01 -9.73739553E-03 -7.26587678E-02
 -1.71615520E-01  1.28977624E-01  7.28861451E-01  3.01331742E-01 -9.73739553E-03
 -7.26587678E-02 -1.71615520E-01  1.28977624E-01  7.28861451E-01  3.01331742E-01
 -9.73739553E-03 -7.26587678E-02 -1.71615520E-01  1.28977624E-01  7.28861451E-01
  3.01331742E-01
P(S=P) Contraction coefficients            R   N=          66
 -8.10494336E-03 -1.71547892E-02  7.36978576E-02  3.96514999E-01  4.97808488E-01
  1.17482582E-01 -8.10494336E-03 -1.71547892E-02  7.36978576E-02  3.96514999E-01
  4.97808488E-01  1.17482582E-01 -8.10494336E-03 -1.71547892E-02  7.36978576E-02
  3.96514999E-01  4.97808488E-01  1.17482582E-01 -8.10494336E-03 -1.71547892E-02
  7.36978576E-02  3.96514999E-01  4.97808488E-01  1.17482582E-01 -8.10494336E-03
 -1.71547892E-02  7.36978576E-02  3.96514999E-01  4.97808488E-01  1.17482582E-01
 -8.10494336E-03 -1.71547892E-02  7.36978576E-02  3.96514999E-01  4.97808488E-01
  1.17482582E-01 -8.10494336E-03 -1.71547892E-02  7.36978576E-02  3.96514999E-01
  4.97808488E-01  1.17482582E-01 -8.10494336E-03 -1.71547892E-02  7.36978576E-02
  3.96514999E-01  4.97808488E-01  1.17482582E-01  0.00000000E+00  0.00000000E+00
  0.00000000E+00  0.00000000E+00  0.00000000E+00  0.00000000E+00  0.00000000E+00
  0.00000000E+00  0.00000000E+00  0.00000000E+00  0.00000000E+00  0.00000000E+00
  0.00000000E+00  0.00000000E+00  0.00000000E+00  0.00000000E+00  0.00000000E+00
  0.00000000E+00
Coordinates of each shell                  R   N=          33
  7.39070487E+00  4.87581636E-01  1.55505414E+01  7.67984117E+00  2.79301147E+00
  1.55486609E+01  8.24674704E+00 -9.95869038E-01  1.73647080E+01  9.57523496E+00
  3.77879462E-02  1.95132973E+01  8.07102349E+00  1.54387319E+00  2.13463390E+01
  8.23729288E+00  3.84180195E+00  2.14805016E+01  6.59890961E+00  1.96552266E-01
  2.28146423E+01  4.88491629E+00  1.27932435E+00  2.47270754E+01  6.42288534E+00
 -4.35897173E-01  1.40342881E+01  5.45854901E+00  4.20951820E-01  2.64656536E+01
  2.94636732E+00  8.17961717E-01  2.43840236E+01
Num ILSW                                   I              100
ILSW                                       I   N=         100
           0           0           0           0           2           0
           0           0           0           0           0          -1
           5           0           0           0           0           0
           0           0           0           0           0           0
           1           1           0           0           0           0
           0           0      100000           0          -1           0
           0           0           0           0           0           0
           0           0           0          40           0           0
           0 -2000000000           1           0           0           0
           0           0           4          52           0           0
           0           1           0           0           0           0
           0           0           0          11           0           1
           0           0           0           0           0           0
           0           0           0           0           0           0
           0           0           0           0           0           0
           0           0           0           0           0           0
           0           0           0           0
Num RLSW                                   I               52
RLSW                                       R   N=          52
  1.00000000E+00  1.00000000E+00  1.00000000E+00  1.00000000E+00  1.00000000E+00
  0.00000000E+00  0.00000000E+00  1.00000000E+00  0.00000000E+00  0.00000000E+00
  0.00000000E+00  0.00000000E+00  1.00000000E+00  0.00000000E+00  0.00000000E+00
  0.00000000E+00  0.00000000E+00  1.00000000E+00  0.00000000E+00  0.00000000E+00
  0.00000000E+00  0.00000000E+00  1.00000000E+00  0.00000000E+00  0.00000000E+00
  0.00000000E+00  0.00000000E+00  1.00000000E+00  0.00000000E+00  0.00000000E+00
  0.00000000E+00  0.00000000E+00  1.00000000E+00  0.00000000E+00  0.00000000E+00
  0.00000000E+00  0.00000000E+00  0.00000000E+00  1.00000000E+00  1.00000000E+00
  0.00000000E+00  1.00000000E+00  0.00000000E+00  0.00000000E+00  0.00000000E+00
  0.00000000E+00  0.00000000E+00  0.00000000E+00  0.00000000E+00  0.00000000E+00
  0.00000000E+00  0.00000000E+00
MxBond                                     I                3
NBond                                      I   N=          11
           3           1           2           2           3           1
           2           3           1           1           1
IBond                                      I   N=          33
           2           3           9           1           0           0
           1           4           0           3           5           0
           4           6           7           5           0           0
           5           8           0           7          10          11
           1           0           0           8           0           0
           8           0           0
RBond                                      R   N=          33
  2.00000000E+00  1.50000000E+00  1.00000000E+00  2.00000000E+00  0.00000000E+00
  0.00000000E+00  1.50000000E+00  1.00000000E+00  0.00000000E+00  1.00000000E+00
  1.00000000E+00  0.00000000E+00  1.00000000E+00  2.00000000E+00  1.50000000E+00
  2.00000000E+00  0.00000000E+00  0.00000000E+00  1.50000000E+00  1.00000000E+00
  0.00000000E+00  1.00000000E+00  1.00000000E+00  1.00000000E+00  1.00000000E+00
  0.00000000E+00  0.00000000E+00  1.00000000E+00  0.00000000E+00  0.00000000E+00
  1.00000000E+00  0.00000000E+00  0.00000000E+00
Virial Ratio                               R      9.542557238537288E-01
SCF Energy                                 R     -3.978039151432284E+00
Total Energy                               R     -3.978039151432284E+00
RMS Density                                R      5.254022478300639E-09
Job Status                                 I                1
Nuclear derivative order                   I                0
External E-field                           R   N=          35
  0.00000000E+00  0.00000000E+00  0.00000000E+00  0.00000000E+00  0.00000000E+00
  0.00000000E+00  0.00000000E+00  0.00000000E+00  0.00000000E+00  0.00000000E+00
  0.00000000E+00  0.00000000E+00  0.00000000E+00  0.00000000E+00  0.00000000E+00
  0.00000000E+00  0.00000000E+00  0.00000000E+00  0.00000000E+00  0.00000000E+00
  0.00000000E+00  0.00000000E+00  0.00000000E+00  0.00000000E+00  0.00000000E+00
  0.00000000E+00  0.00000000E+00  0.00000000E+00  0.00000000E+00  0.00000000E+00
  0.00000000E+00  0.00000000E+00  0.00000000E+00  0.00000000E+00  0.00000000E+00
IOpCl                                      I                0
IROHF                                      I                0
Alpha Orbital Energies                     R   N=          35
 -1.36487521E+00 -1.34499981E+00 -1.25922054E+00 -1.24330751E+00 -1.10343165E+00
 -1.00712086E+00 -9.09494425E-01 -8.02017211E-01 -7.54893047E-01 -7.41688518E-01
 -7.28441586E-01 -7.15541690E-01 -6.95953397E-01 -6.26524968E-01 -6.09241211E-01
 -5.74440644E-01 -5.67426493E-01 -5.37515076E-01 -5.26036513E-01 -4.82877962E-01
 -2.66492603E-01 -2.06711019E-01 -1.57792281E-01 -1.16921351E-01 -1.11481522E-01
 -7.77972976E-02 -5.74958315E-02 -2.97528521E-02  1.42564525E-03  9.59830306E-03
  2.96958134E-02  4.61943330E-02  7.93449079E-02  9.91091317E-02  3.08459437E-01
Alpha MO coefficients                      R   N=        1225
  4.05955392E-01  7.66587997E-02  6.86238212E-02  1.25601335E-01  3.13531490E-01
 -9.04723732E-03 -2.08144001E-01  3.26588160E-02  4.76316092E-01 -7.68950500E-03
  1.88428338E-01 -2.11756920E-02  2.67348003E-01 -1.17888512E-01  2.61156915E-02
 -6.32976482E-02  3.54888781E-01 -3.01200459E-02  4.18949295E-02 -4.56013598E-03
  2.47047130E-01 -2.00115660E-02 -1.69190560E-01 -1.23476224E-02  2.48242156E-01
  5.12103575E-02  9.43040801E-02 -6.36625610E-02  6.04386530E-02  3.43401407E-02
 -6.06896358E-03 -3.98581386E-02  1.00742491E-01  1.78723309E-02  1.24289291E-02
 -3.07361600E-01 -5.28681848E-02 -6.94782584E-02 -6.82201370E-02 -2.69228807E-01
  9.87727352E-03  1.65894145E-01 -1.56427372E-02 -2.91115705E-01  6.47188752E-03
 -1.08314420E-01  5.85788207E-02 -3.72475474E-03 -7.18536892E-03  6.25953854E-02
  1.32218170E-01  4.40390659E-01 -6.53774705E-02  1.51643789E-01  9.78011575E-02
  4.35777991E-01 -3.62392805E-02 -2.51666551E-01  6.52888667E-03  3.60577191E-01
  5.72332925E-02  1.49122386E-01 -5.54383705E-02  1.09103137E-01  5.68511975E-02
 -1.13093550E-02 -6.32536897E-02 -8.09912064E-02  3.42511618E-02  2.26521126E-02
  1.11095457E-01 -2.28663017E-02  3.30384175E-01 -1.20867538E-01  5.57764809E-01
 -3.83630933E-02 -1.79643128E-01 -2.96335914E-02 -4.24518197E-01 -2.69523334E-02
 -6.41905789E-02 -6.06414179E-02 -2.40359418E-01  9.10629637E-02  5.26095326E-02
  7.27331510E-02 -3.87280362E-02  4.83228634E-02  2.55909071E-01  8.41289031E-03
  3.42765282E-01  4.37936204E-04 -8.41555971E-02 -7.13581464E-03 -2.25307311E-01
 -2.54981426E-02 -2.61602356E-02  4.23462383E-02 -6.06383937E-02 -2.41605267E-02
  1.67670141E-02  2.95795621E-02  2.79054077E-02 -2.17743749E-02 -1.44553414E-02
  1.86849603E-02 -2.15453594E-02  1.96590430E-01 -7.87402049E-02  3.09458897E-01
 -2.28341387E-02 -8.50786408E-02 -2.21846217E-02 -2.64429883E-01 -9.35055329E-03
 -5.14838136E-02  1.01062983E-02 -8.10062038E-02  9.88987068E-03 -5.71890002E-03
  8.74805904E-02  4.31972810E-02 -1.61371475E-01 -3.25049242E-01  1.41893228E-01
 -4.67002815E-01 -2.62384625E-02  1.09616489E-01  5.02415384E-02  5.43899597E-01
  1.41726976E-02  1.09129487E-01 -2.26500016E-02  2.09142087E-01  7.64274611E-02
 -4.58346220E-02 -8.75745494E-02  1.36395157E-03  7.71186683E-02  4.94485182E-02
 -2.51896726E-01 -6.31605246E-03  1.94644656E-01 -2.45938613E-02  1.90590804E-01
  6.27245263E-04  5.14840174E-02  2.65127053E-04 -1.25574307E-01  1.20697321E-01
 -1.36258182E-02  2.99798925E-01  4.61338095E-01 -1.04621451E-01  5.35012848E-02
  9.68955858E-02  2.76017916E-01  1.29386233E-01 -2.01281226E-01 -1.85597795E-01
 -1.80088870E-01  4.91460835E-02 -6.34454026E-02 -6.49675163E-02 -1.82363426E-01
  1.87493727E-01 -6.50975268E-02 -2.12131242E-01 -3.40776121E-01 -5.55724304E-02
  6.00671215E-02  5.85297173E-02 -1.29583163E-01 -1.50103412E-01 -9.16932146E-02
 -3.21913731E-01  5.70475162E-02  1.70169502E-01  5.66390090E-02  2.06799868E-01
  3.01281024E-02  1.10731808E-01  2.60394729E-02  1.25103646E-01  2.07245635E-01
 -5.93385869E-03  3.22524647E-01  2.45523109E-01 -2.09643219E-02 -9.90580844E-02
 -1.85433069E-01 -1.94359019E-01  6.81554804E-02  1.07730601E-01 -8.60144294E-02
  1.30531503E-01  1.80344599E-02  7.19759408E-02 -2.61415670E-02  1.17598386E-03
 -2.40570774E-01 -1.99828535E-02  2.50694209E-01  4.58217153E-01  7.15952292E-03
 -7.64456012E-02  3.36953881E-03 -2.02277296E-01  2.34955894E-01  1.37821996E-01
  2.46298219E-01 -9.30641400E-02 -6.09643935E-02 -1.20968099E-01 -2.01057415E-01
 -5.31804303E-02 -1.42838644E-01 -4.45421198E-02 -2.51880894E-01 -1.09640004E-01
  5.15510814E-02 -1.13005171E-01  2.56188057E-01  3.53865389E-03  2.15946814E-01
  2.46156935E-01  1.58864859E-01  2.81841536E-01 -4.03931277E-02 -2.62376819E-01
 -1.54832107E-01  1.31975202E-01 -1.12977455E-01 -1.31495133E-01 -1.65877571E-01
 -9.07931376E-02 -5.98945813E-02  1.29684165E-01  3.87322664E-01 -6.35379209E-02
 -4.36813954E-02  1.08870809E-01  1.89121949E-01  2.44053191E-01  1.30469449E-01
 -1.89260605E-01  1.65029595E-01 -7.56188711E-02  3.91116066E-01  2.36670170E-01
  1.30130450E-01  2.41151789E-01  2.43166632E-01  8.67041471E-02 -1.96239343E-01
  8.64224689E-02 -2.57832510E-01 -2.54100302E-01 -1.96336118E-02  1.52980356E-01
  1.03327504E-01  1.84028503E-01  1.44720716E-02  9.40706595E-02 -1.69484255E-02
 -2.85867996E-01 -4.15504001E-03 -2.96015868E-01 -3.96530708E-02 -1.77963340E-01
  4.55663942E-02  7.82391153E-02 -1.74011128E-02  1.32291316E-01 -5.63227375E-02
  3.52456700E-02  9.19168875E-02 -2.68497197E-01  9.92268114E-02  4.89744704E-02
 -1.81900733E-02  1.16563949E-01  3.78655883E-02  3.22572218E-01 -4.52597944E-02
  7.57154633E-02 -5.31454983E-02  2.65004161E-01 -1.72723423E-01 -1.36417138E-01
  2.39734051E-01 -1.60537472E-01  7.45032264E-02  5.32481035E-03  1.92039821E-01
  1.35744272E-01 -1.38503519E-01  1.43719044E-01 -1.67969360E-01 -1.89580821E-01
  2.86201326E-01  1.63517266E-01  3.59964582E-01 -1.43504985E-01  2.80398295E-01
 -1.28017754E-01 -2.02001838E-01  5.39429804E-02 -1.46285786E-01  7.59929383E-02
 -9.84126106E-02 -1.34628895E-01 -1.86869784E-01 -1.13853780E-01 -5.27803882E-02
 -4.39341491E-02 -5.96291605E-02 -2.54041635E-01 -1.24095928E-01  3.18384398E-01
  1.44086341E-02  3.89018193E-01 -1.37130239E-01  1.86833963E-01 -8.63926352E-02
 -2.52596784E-01 -1.49862504E-01  6.05246960E-02  7.61329392E-02 -3.70739667E-02
  2.17081883E-01 -1.99782957E-02  3.02759912E-01 -1.78048565E-01  1.74679138E-01
  1.77930272E-01  2.83384094E-01  1.71386246E-01  1.58985265E-01  7.11705290E-02
  2.28712387E-01 -1.31328611E-01  9.54793864E-02 -3.80747378E-03  3.93732834E-02
 -4.59268222E-02  1.45928904E-01  1.23319440E-01  1.05588897E-01 -1.76618161E-02
  1.12265462E-02  3.63593060E-01  1.11174067E-01 -9.01625200E-03 -1.68160390E-01
  3.01421104E-01 -2.63421871E-01 -3.05077639E-02 -9.04374668E-02  3.31134311E-01
  1.16477616E-01 -1.44253383E-01  1.13622115E-01  2.22327480E-01  5.81031390E-03
 -7.57975691E-02 -7.42256331E-03  2.51230648E-01  5.47050274E-02  3.22139107E-01
 -9.14767530E-02  2.07127537E-01 -1.50188820E-01  2.76861320E-01  8.35496482E-03
  1.94279591E-01  4.33325946E-02  2.07456701E-01 -6.02983474E-02  1.23652630E-01
 -1.26179698E-02  4.78947084E-02 -1.29672632E-01  2.51862868E-02 -5.89887406E-02
  7.43105951E-03 -7.68556648E-02  1.60735261E-01  1.85767576E-01 -1.53920801E-01
 -1.30914235E-01 -2.07310462E-01  1.70961544E-01 -4.41165794E-02 -1.16935031E-01
  9.19561269E-02  1.30489378E-01 -6.72497756E-02 -9.97912347E-02 -7.04408311E-02
  2.25231271E-02  1.75534666E-02 -9.83268869E-02 -2.19403682E-01  2.09176967E-01
  2.09036448E-01 -5.23540677E-02  2.58411927E-01  2.06023097E-01 -1.60953219E-01
  3.67447859E-01 -4.60533167E-03 -2.00801909E-01  1.78603112E-01 -1.54197658E-01
  6.97371654E-02  3.81782731E-01 -1.05161816E-01  2.78273676E-01  7.75608499E-02
  3.31737934E-04  3.72960336E-01 -1.22714224E-01 -1.88866814E-01  7.13086465E-02
  4.59818959E-01  5.45663080E-02 -2.18968693E-01 -4.33330951E-02  2.11536817E-01
 -1.27272955E-02 -2.33977189E-01  3.76175566E-02  5.46602058E-02  3.89577132E-02
  1.43880596E-02  3.69382080E-02 -2.48053933E-01 -1.36716449E-01 -1.75064835E-01
  1.38379686E-01 -2.30493411E-01  2.26250109E-01 -1.67792028E-01 -6.26672992E-02
 -1.07859301E-02 -1.28119736E-02 -2.94138142E-01  1.23181413E-01 -1.95940095E-01
  6.11152181E-02  9.97440025E-02  1.31141802E-02  7.04825167E-02  8.99940330E-02
  5.87744870E-02 -1.00648245E-01 -1.31916956E-01  7.39527751E-02  8.84344459E-02
 -1.32733067E-01  2.10826147E-01  1.75431330E-01 -1.66096606E-01  7.72961175E-02
  1.80836355E-01 -1.30665267E-01  3.13628266E-01  2.02123519E-01  7.42494506E-02
  5.76437320E-03 -2.93502477E-02 -3.74299986E-02 -4.93709630E-02  1.53572353E-01
  4.58650391E-02 -1.11649755E-01  1.38286781E-01  3.67757655E-01 -1.92232541E-01
 -9.65180076E-02  3.27817359E-01 -4.43820032E-02  1.51984038E-01 -1.66904420E-01
  2.41109547E-01 -3.15521885E-01  7.91427539E-02 -2.39617225E-01  9.76284807E-02
 -6.61353714E-02  9.74055887E-02  1.45697436E-01 -1.13557914E-02 -8.96769124E-02
  1.17017578E-01 -2.50824895E-01 -1.28157593E-01  1.95545355E-01 -1.54351495E-01
 -2.78926343E-01  8.37233032E-02 -1.81718803E-01 -1.38374524E-01 -7.82958230E-02
  1.72328090E-01  4.34241239E-02  1.50137829E-01 -6.99544224E-02  1.71641154E-02
  2.80498269E-02  3.79342278E-01  4.93491510E-03  9.32629360E-02 -3.71115809E-02
 -1.42462947E-01  2.76258111E-02 -1.68303285E-01  1.71242727E-01 -3.47213565E-01
  1.84298684E-01 -3.16812627E-01 -1.21284366E-01 -2.60700888E-01  1.67812987E-01
  3.81995507E-02  2.83929888E-02 -9.79630132E-02 -9.19399478E-02  4.96164723E-02
  3.72714081E-01  1.47392790E-01 -2.62178806E-01 -1.47801707E-01 -3.35494434E-01
  4.47498918E-01  3.32836299E-01 -1.03383167E-01 -3.99199443E-01  1.14779213E-01
 -1.18138122E-01 -1.62210031E-02  1.62843493E-02 -1.22153020E-02  4.61245973E-02
  1.03346863E-02  9.84748292E-02  3.82738274E-02  1.87308384E-01 -6.69930261E-02
  1.33998076E-03  1.27471158E-01  1.00521064E-01 -6.00302272E-03  1.08234056E-01
  1.55522394E-02 -3.64630275E-02  1.02169012E-01 -7.24240394E-03 -3.76032450E-02
  3.21831270E-02 -6.60405131E-02 -6.85955405E-02 -3.31840627E-02  3.89529233E-02
 -1.77176582E-01  1.88088276E-01  7.33911706E-03 -1.23763995E-01  2.66438005E-01
  3.31567040E-01 -1.67393739E-02 -1.29917250E-01  1.69558664E-02  3.93690478E-02
 -3.53488977E-01 -2.15089942E-02  2.49569813E-02  5.83184792E-02  4.34520878E-02
 -3.22975619E-02  3.89341724E-01 -1.68346498E-01 -3.52479559E-02  1.82020845E-01
 -6.21073491E-03 -3.30570506E-01 -3.09544015E-01  3.22255080E-02 -3.50825581E-01
 -1.62666076E-02  7.59919499E-02  8.62815988E-02 -9.16771013E-03  1.25400145E-01
  6.17692154E-02 -1.95038709E-02 -5.74409297E-02 -1.74495794E-02  1.49915137E-02
  3.00465730E-01 -2.68997064E-02  2.93428447E-01 -4.68811551E-02 -1.50088477E-01
 -1.34149954E-01  1.17181599E-01  1.30384396E-01 -7.03395721E-03 -1.09862265E-01
  1.25072461E-01 -5.98371978E-02  3.60779284E-03  9.12665067E-02  6.84526375E-03
 -4.02320185E-02 -2.88612966E-01 -2.01659238E-01  4.66423047E-01  1.14677061E-01
 -2.18347677E-01 -4.52078424E-01 -1.11802638E-01 -6.56994122E-02 -1.58412411E-01
 -1.92621305E-01  4.15260625E-02  9.81594464E-02  2.21549066E-02  4.98884193E-02
  1.11388214E-01 -7.80208498E-02 -1.02308607E-01 -1.16888105E-01  2.59706394E-02
  3.61399399E-01  1.89541320E-02  6.52967655E-01 -7.89751220E-02  9.30764428E-02
 -1.77926056E-01  1.74840910E-01 -5.04848355E-02 -4.41868212E-02 -1.51469830E-01
 -1.15446144E-01  1.12646603E-02 -8.16444822E-03 -1.05254289E-02  2.25686160E-02
  5.64144678E-03  2.37851591E-01  3.44785512E-02 -3.01058575E-01 -3.32129620E-02
  1.30007181E-01  1.91774661E-01  3.41771742E-02  3.89199348E-02  3.80325762E-02
  1.04950063E-01 -1.45057340E-02  2.48318778E-01 -1.77983545E-02 -1.03163427E-02
  9.10224435E-03 -1.25943039E-02 -5.83267339E-03  2.05301714E-02  2.93261909E-03
  5.05080235E-02  1.81067723E-02 -6.78982806E-02 -1.90260483E-02 -9.62238227E-02
  1.05375450E-01  7.68585794E-02  1.86273998E-02  2.77515078E-02 -4.98344366E-02
  1.14226741E-02 -7.42758755E-02  1.71011275E-01  3.49288433E-02  1.57296297E-01
 -1.49817906E-02 -3.88579548E-01 -5.92980617E-02 -3.20364839E-01  1.11665440E-01
  4.53946424E-01 -2.79972085E-01  3.31776591E-01  1.17922484E-01 -2.95506287E-01
  1.87918466E-01 -1.72120415E-01  3.53594681E-04 -2.29328903E-01  1.32637695E-01
  2.98811311E-02 -1.13103790E-01 -1.18855574E-02  1.76485490E-01  7.89585510E-03
  1.82855917E-01 -2.50581016E-02 -2.07361465E-01 -5.77868848E-02 -4.14831998E-01
  5.99016924E-02  1.18382833E-01  2.82171194E-01  5.18365238E-01 -2.38701552E-01
  1.75574629E-02 -1.53079490E-01 -1.35126593E-01  1.34166614E-01  1.64945109E-01
 -2.44533550E-02  1.85433347E-01 -9.37173004E-02 -2.51891340E-01  5.41164414E-02
 -6.52765691E-02  1.07713922E-01 -2.09124255E-01 -4.20553823E-02 -3.31318849E-02
  1.59043868E-02  1.12544659E-01 -5.54801757E-02  6.04933467E-02 -9.98853637E-03
 -1.10451823E-01 -1.71895323E-01  8.28908412E-02 -7.79395803E-02 -7.84929480E-03
  1.34071808E-01 -9.77685756E-02  2.34155507E-02  1.50311425E-01 -1.70044297E-01
 -2.48914314E-01  5.11261869E-02  1.94895314E-02  2.31548348E-01  7.42409554E-01
 -3.82325126E-01 -2.14194804E-02 -8.03027320E-03  5.65367622E-02 -3.25470388E-02
 -2.27177168E-02 -2.30447746E-02  8.62955313E-02  8.61499360E-02  8.56938407E-02
  8.67120745E-02 -1.99227683E-03 -9.07879007E-03 -7.72873764E-03 -5.04708435E-02
  8.16075335E-02  6.21870981E-02  2.99292353E-02 -5.86608987E-03  5.95099913E-03
  1.58577935E-02  3.79670500E-02 -2.25661481E-02  1.73557356E-02  3.95593179E-03
 -2.60358650E-02  1.30289524E-03 -1.02748148E-02 -3.93010016E-02 -1.43094907E-02
 -2.79286830E-02 -3.89517326E-02  3.92839915E-02 -4.27780744E-02 -7.74881676E-02
  1.70224703E-02 -1.34323403E-01 -5.37571321E-02  8.49027180E-02 -2.37335026E-01
 -1.75164361E-03  5.41134734E-02 -1.01713228E-01  1.39722184E-01  1.51600162E-01
  2.21725296E-02 -2.27611197E-01 -6.74340715E-02  1.42132561E-01  3.27357273E-01
  7.83652623E-01  1.34100429E-01 -1.89983252E-02 -1.20511204E-02 -1.60997605E-01
 -4.74731048E-02  8.46140469E-02  5.74967256E-02 -1.68144591E-01 -1.64800954E-02
 -5.35575367E-02  2.89923191E-02  1.02048329E-01  1.30840827E-01  3.94784095E-02
  1.57697292E-01  1.37815061E-01 -1.14577781E-01  2.44029146E-02  1.51624862E-01
  1.61093509E-01 -7.98285601E-02  4.93983976E-01 -2.85230753E-02  3.77246530E-01
 -2.47197522E-03 -2.77540294E-01  1.06191758E-02 -2.23969550E-01  3.80149935E-02
 -3.21852314E-01  7.41086330E-02 -3.57117046E-01 -1.06126240E-02  1.10301506E-01
  1.61964799E-01  7.74782814E-02  5.97706672E-02  8.77151620E-02 -6.88398296E-02
 -9.10983664E-04  6.15642845E-01 -1.01387248E-01 -3.28346958E-01  8.76980275E-03
 -3.74280567E-01  2.04108393E-02  1.95856988E-01 -4.16466840E-02 -3.09386550E-01
 -6.76391055E-02  6.13286347E-02  2.06357966E-01 -1.21448238E-01  1.11481523E-01
  1.42037393E-02 -1.86336845E-01 -1.92901595E-01  1.40092089E-01  9.27139469E-02
 -1.73470649E-02  1.02859460E-01 -4.74520386E-02 -3.90149478E-02  5.11734219E-02
  6.30193523E-02  5.76437205E-02  3.92710958E-02 -4.57744174E-02 -1.08933027E-01
 -3.18404164E-02  6.53512082E-02 -4.29220408E-02 -9.36160236E-03  2.75367589E-02
 -6.18528918E-02  1.79415333E-01  9.32760245E-02 -2.56283193E-01 -2.98891554E-02