Atom number=18                                                          
SP        RPM6                                                        ZDO                 
Number of atoms                            I               18
Info1-9                                    I   N=           9
          80          79           0           0           0         111
           1           8        2302
Full Title                                 C   N=           2
Atom number=18          
Route                                      C   N=           3
#p int=acc2e=12 pm6 charge nosymm   
Charge                                     I                4
Multiplicity                               I                1
Number of electrons                        I               68
Number of alpha electrons                  I               34
Number of beta electrons                   I               34
Number of basis functions                  I               63
Number of independent functions            I               63
Number of point charges in /Mol/           I                0
Number of translation vectors              I                0
Atomic numbers                             I   N=          18
           6           8           7           6           6           8
           7           6           6           8           7           6
           6           6           6           1           1           1
Nuclear charges                            R   N=          18
  4.00000000E+00  6.00000000E+00  5.00000000E+00  4.00000000E+00  4.00000000E+00
  6.00000000E+00  5.00000000E+00  4.00000000E+00  4.00000000E+00  6.00000000E+00
  5.00000000E+00  4.00000000E+00  4.00000000E+00  4.00000000E+00  4.00000000E+00
  1.00000000E+00  1.00000000E+00  1.00000000E+00
Current cartesian coordinates              R   N=          54
  7.39070487E+00  4.87581636E-01  1.55505414E+01  7.67984117E+00  2.79301147E+00
  1.55486609E+01  8.24674704E+00 -9.95869038E-01  1.73647080E+01  9.57523496E+00
  3.77879462E-02  1.95132973E+01  8.07102349E+00  1.54387319E+00  2.13463390E+01
  8.23729288E+00  3.84180195E+00  2.14805016E+01  6.59890961E+00  1.96552266E-01
  2.28146423E+01  4.88491629E+00  1.27932435E+00  2.47270754E+01  5.68051218E+00
  8.88105705E-02  2.71383843E+01  5.58979663E+00 -2.20909802E+00  2.74293788E+01
  6.57813976E+00  1.67618974E+00  2.88409774E+01  7.86693520E+00  7.40760849E-01
  3.10708616E+01  2.12972049E+00  6.23604840E-01  2.42395072E+01  4.68645106E-01
  1.27555296E+00  2.65279526E+01  1.27365653E+00  1.97854601E+00  2.19132727E+01
  6.42288534E+00 -4.35897173E-01  1.40342881E+01  6.87909866E+00  1.50669066E+00
  3.26602144E+01  9.83429691E+00  1.20263580E+00  3.10025128E+01
Number of symbols in /Mol/                 I                0
Int Atom Types                             I   N=          18
           0           0           0           0           0           0
           0           0           0           0           0           0
           0           0           0           0           0           0
Force Field                                I                0
Atom Types                                 C   N=          18
                                                            
                                                            
                                                            
                                    
MM charges                                 R   N=          18
  0.00000000E+00  0.00000000E+00  0.00000000E+00  0.00000000E+00  0.00000000E+00
  0.00000000E+00  0.00000000E+00  0.00000000E+00  0.00000000E+00  0.00000000E+00
  0.00000000E+00  0.00000000E+00  0.00000000E+00  0.00000000E+00  0.00000000E+00
  0.00000000E+00  0.00000000E+00  0.00000000E+00
Integer atomic weights                     I   N=          18
          12          16          14          12          12          16
          14          12          12          16          14          12
          12          12          12           1           1           1
Real atomic weights                        R   N=          18
  1.20000000E+01  1.59949146E+01  1.40030740E+01  1.20000000E+01  1.20000000E+01
  1.59949146E+01  1.40030740E+01  1.20000000E+01  1.20000000E+01  1.59949146E+01
  1.40030740E+01  1.20000000E+01  1.20000000E+01  1.20000000E+01  1.20000000E+01
  1.00782504E+00  1.00782504E+00  1.00782504E+00
Atom fragment info                         I   N=          18
           0           0           0           0           0           0
           0           0           0           0           0           0
           0           0           0           0           0           0
Atom residue num                           I   N=          18
           0           0           0           0           0           0
           0           0           0           0           0           0
           0           0           0           0           0           0
Nuclear spins                              I   N=          18
           0           0           2           0           0           0
           2           0           0           0           2           0
           0           0           0           1           1           1
Nuclear ZEff                               R   N=          18
 -3.90000000E+00 -6.00000000E+00 -4.90000000E+00 -3.90000000E+00 -3.90000000E+00
 -6.00000000E+00 -4.90000000E+00 -3.90000000E+00 -3.90000000E+00 -6.00000000E+00
 -4.90000000E+00 -3.90000000E+00 -3.90000000E+00 -3.90000000E+00 -3.90000000E+00
 -1.00000000E+00 -1.00000000E+00 -1.00000000E+00
Nuclear ZNuc                               R   N=          18
  6.00000000E+00  8.00000000E+00  7.00000000E+00  6.00000000E+00  6.00000000E+00
  8.00000000E+00  7.00000000E+00  6.00000000E+00  6.00000000E+00  8.00000000E+00
  7.00000000E+00  6.00000000E+00  6.00000000E+00  6.00000000E+00  6.00000000E+00
  1.00000000E+00  1.00000000E+00  1.00000000E+00
Nuclear QMom                               R   N=          18
  0.00000000E+00  0.00000000E+00  2.04400000E+00  0.00000000E+00  0.00000000E+00
  0.00000000E+00  2.04400000E+00  0.00000000E+00  0.00000000E+00  0.00000000E+00
  2.04400000E+00  0.00000000E+00  0.00000000E+00  0.00000000E+00  0.00000000E+00
  0.00000000E+00  0.00000000E+00  0.00000000E+00
Nuclear GFac                               R   N=          18
  0.00000000E+00  0.00000000E+00  4.03761000E-01  0.00000000E+00  0.00000000E+00
  0.00000000E+00  4.03761000E-01  0.00000000E+00  0.00000000E+00  0.00000000E+00
  4.03761000E-01  0.00000000E+00  0.00000000E+00  0.00000000E+00  0.00000000E+00
  2.79284600E+00  2.79284600E+00  2.79284600E+00
MicOpt                                     I   N=          18
          -1          -1          -1          -1          -1          -1
          -1          -1          -1          -1          -1          -1
          -1          -1          -1          -1          -1          -1
Number of residues                         I                0
Number of secondary structures             I                0
Number of contracted shells                I               18
Number of primitive shells                 I              108
Pure/Cartesian d shells                    I                0
Pure/Cartesian f shells                    I                0
Highest angular momentum                   I                1
Largest degree of contraction              I                6
Shell types                                I   N=          18
          -1          -1          -1          -1          -1          -1
          -1          -1          -1          -1          -1          -1
          -1          -1          -1           0           0           0
Number of primitives per shell             I   N=          18
           6           6           6           6           6           6
           6           6           6           6           6           6
           6           6           6           6           6           6
Shell to atom map                          I   N=          18
           1           2           3           4           5           6
           7           8           9          10          11          12
          13          14          15          16          17          18
Primitive exponents                        R   N=         108
  1.14476344E+01  3.29633588E+00  1.29653143E+00  5.92558930E-01  2.94896438E-01
  1.51447622E-01  8.02643074E+01  2.31120341E+01  9.09054165E+00  4.15468650E+00
  2.06764625E+00  1.06186467E+00  1.54719623E+01  4.45513742E+00  1.75231709E+00
  8.00868468E-01  3.98565014E-01  2.04687870E-01  1.14476344E+01  3.29633588E+00
  1.29653143E+00  5.92558930E-01  2.94896438E-01  1.51447622E-01  1.14476344E+01
  3.29633588E+00  1.29653143E+00  5.92558930E-01  2.94896438E-01  1.51447622E-01
  8.02643074E+01  2.31120341E+01  9.09054165E+00  4.15468650E+00  2.06764625E+00
  1.06186467E+00  1.54719623E+01  4.45513742E+00  1.75231709E+00  8.00868468E-01
  3.98565014E-01  2.04687870E-01  1.14476344E+01  3.29633588E+00  1.29653143E+00
  5.92558930E-01  2.94896438E-01  1.51447622E-01  1.14476344E+01  3.29633588E+00
  1.29653143E+00  5.92558930E-01  2.94896438E-01  1.51447622E-01  8.02643074E+01
  2.31120341E+01  9.09054165E+00  4.15468650E+00  2.06764625E+00  1.06186467E+00
  1.54719623E+01  4.45513742E+00  1.75231709E+00  8.00868468E-01  3.98565014E-01
  2.04687870E-01  1.14476344E+01  3.29633588E+00  1.29653143E+00  5.92558930E-01
  2.94896438E-01  1.51447622E-01  1.14476344E+01  3.29633588E+00  1.29653143E+00
  5.92558930E-01  2.94896438E-01  1.51447622E-01  1.14476344E+01  3.29633588E+00
  1.29653143E+00  5.92558930E-01  2.94896438E-01  1.51447622E-01  1.14476344E+01
  3.29633588E+00  1.29653143E+00  5.92558930E-01  2.94896438E-01  1.51447622E-01
  4.39461478E+00  1.26542531E+00  4.97723458E-01  2.27476537E-01  1.13207340E-01
  5.81389949E-02  4.39461478E+00  1.26542531E+00  4.97723458E-01  2.27476537E-01
  1.13207340E-01  5.81389949E-02  4.39461478E+00  1.26542531E+00  4.97723458E-01
  2.27476537E-01  1.13207340E-01  5.81389949E-02
Contraction coefficients                   R   N=         108
 -9.73739553E-03 -7.26587678E-02 -1.71615520E-01  1.28977624E-01  7.28861451E-01
  3.01331742E-01 -9.73739553E-03 -7.26587678E-02 -1.71615520E-01  1.28977624E-01
  7.28861451E-01  3.01331742E-01 -9.73739553E-03 -7.26587678E-02 -1.71615520E-01
  1.28977624E-01  7.28861451E-01  3.01331742E-01 -9.73739553E-03 -7.26587678E-02
 -1.71615520E-01  1.28977624E-01  7.28861451E-01  3.01331742E-01 -9.73739553E-03
 -7.26587678E-02 -1.71615520E-01  1.28977624E-01  7.28861451E-01  3.01331742E-01
 -9.73739553E-03 -7.26587678E-02 -1.71615520E-01  1.28977624E-01  7.28861451E-01
  3.01331742E-01 -9.73739553E-03 -7.26587678E-02 -1.71615520E-01  1.28977624E-01
  7.28861451E-01  3.01331742E-01 -9.73739553E-03 -7.26587678E-02 -1.71615520E-01
  1.28977624E-01  7.28861451E-01  3.01331742E-01 -9.73739553E-03 -7.26587678E-02
 -1.71615520E-01  1.28977624E-01  7.28861451E-01  3.01331742E-01 -9.73739553E-03
 -7.26587678E-02 -1.71615520E-01  1.28977624E-01  7.28861451E-01  3.01331742E-01
 -9.73739553E-03 -7.26587678E-02 -1.71615520E-01  1.28977624E-01  7.28861451E-01
  3.01331742E-01 -9.73739553E-03 -7.26587678E-02 -1.71615520E-01  1.28977624E-01
  7.28861451E-01  3.01331742E-01 -9.73739553E-03 -7.26587678E-02 -1.71615520E-01
  1.28977624E-01  7.28861451E-01  3.01331742E-01 -9.73739553E-03 -7.26587678E-02
 -1.71615520E-01  1.28977624E-01  7.28861451E-01  3.01331742E-01 -9.73739553E-03
 -7.26587678E-02 -1.71615520E-01  1.28977624E-01  7.28861451E-01  3.01331742E-01
 -9.73739553E-03 -7.26587678E-02 -1.71615520E-01  1.28977624E-01  7.28861451E-01
  3.01331742E-01 -9.73739553E-03 -7.26587678E-02 -1.71615520E-01  1.28977624E-01
  7.28861451E-01  3.01331742E-01 -9.73739553E-03 -7.26587678E-02 -1.71615520E-01
  1.28977624E-01  7.28861451E-01  3.01331742E-01
P(S=P) Contraction coefficients            R   N=         108
 -8.10494336E-03 -1.71547892E-02  7.36978576E-02  3.96514999E-01  4.97808488E-01
  1.17482582E-01 -8.10494336E-03 -1.71547892E-02  7.36978576E-02  3.96514999E-01
  4.97808488E-01  1.17482582E-01 -8.10494336E-03 -1.71547892E-02  7.36978576E-02
  3.96514999E-01  4.97808488E-01  1.17482582E-01 -8.10494336E-03 -1.71547892E-02
  7.36978576E-02  3.96514999E-01  4.97808488E-01  1.17482582E-01 -8.10494336E-03
 -1.71547892E-02  7.36978576E-02  3.96514999E-01  4.97808488E-01  1.17482582E-01
 -8.10494336E-03 -1.71547892E-02  7.36978576E-02  3.96514999E-01  4.97808488E-01
  1.17482582E-01 -8.10494336E-03 -1.71547892E-02  7.36978576E-02  3.96514999E-01
  4.97808488E-01  1.17482582E-01 -8.10494336E-03 -1.71547892E-02  7.36978576E-02
  3.96514999E-01  4.97808488E-01  1.17482582E-01 -8.10494336E-03 -1.71547892E-02
  7.36978576E-02  3.96514999E-01  4.97808488E-01  1.17482582E-01 -8.10494336E-03
 -1.71547892E-02  7.36978576E-02  3.96514999E-01  4.97808488E-01  1.17482582E-01
 -8.10494336E-03 -1.71547892E-02  7.36978576E-02  3.96514999E-01  4.97808488E-01
  1.17482582E-01 -8.10494336E-03 -1.71547892E-02  7.36978576E-02  3.96514999E-01
  4.97808488E-01  1.17482582E-01 -8.10494336E-03 -1.71547892E-02  7.36978576E-02
  3.96514999E-01  4.97808488E-01  1.17482582E-01 -8.10494336E-03 -1.71547892E-02
  7.36978576E-02  3.96514999E-01  4.97808488E-01  1.17482582E-01 -8.10494336E-03
 -1.71547892E-02  7.36978576E-02  3.96514999E-01  4.97808488E-01  1.17482582E-01
  0.00000000E+00  0.00000000E+00  0.00000000E+00  0.00000000E+00  0.00000000E+00
  0.00000000E+00  0.00000000E+00  0.00000000E+00  0.00000000E+00  0.00000000E+00
  0.00000000E+00  0.00000000E+00  0.00000000E+00  0.00000000E+00  0.00000000E+00
  0.00000000E+00  0.00000000E+00  0.00000000E+00
Coordinates of each shell                  R   N=          54
  7.39070487E+00  4.87581636E-01  1.55505414E+01  7.67984117E+00  2.79301147E+00
  1.55486609E+01  8.24674704E+00 -9.95869038E-01  1.73647080E+01  9.57523496E+00
  3.77879462E-02  1.95132973E+01  8.07102349E+00  1.54387319E+00  2.13463390E+01
  8.23729288E+00  3.84180195E+00  2.14805016E+01  6.59890961E+00  1.96552266E-01
  2.28146423E+01  4.88491629E+00  1.27932435E+00  2.47270754E+01  5.68051218E+00
  8.88105705E-02  2.71383843E+01  5.58979663E+00 -2.20909802E+00  2.74293788E+01
  6.57813976E+00  1.67618974E+00  2.88409774E+01  7.86693520E+00  7.40760849E-01
  3.10708616E+01  2.12972049E+00  6.23604840E-01  2.42395072E+01  4.68645106E-01
  1.27555296E+00  2.65279526E+01  1.27365653E+00  1.97854601E+00  2.19132727E+01
  6.42288534E+00 -4.35897173E-01  1.40342881E+01  6.87909866E+00  1.50669066E+00
  3.26602144E+01  9.83429691E+00  1.20263580E+00  3.10025128E+01
Num ILSW                                   I              100
ILSW                                       I   N=         100
           0           0           0           0           2           0
           0           0           0           0           0          -1
           5           0           0           0           0           0
           0           0           0           0           0           0
           1           1           0           0           0           0
           0           0      100000           0          -1           0
           0           0           0           0           0           0
           0           0           0          40           0           0
           0 -2000000000           1           0           0           0
           0           0           4          52           0           0
           0           1           0           0           0           0
           0           0           0          18           0           1
           0           0           0           0           0           0
           0           0           0           0           0           0
           0           0           0           0           0           0
           0           0           0           0           0           0
           0           0           0           0
Num RLSW                                   I               52
RLSW                                       R   N=          52
  1.00000000E+00  1.00000000E+00  1.00000000E+00  1.00000000E+00  1.00000000E+00
  0.00000000E+00  0.00000000E+00  1.00000000E+00  0.00000000E+00  0.00000000E+00
  0.00000000E+00  0.00000000E+00  1.00000000E+00  0.00000000E+00  0.00000000E+00
  0.00000000E+00  0.00000000E+00  1.00000000E+00  0.00000000E+00  0.00000000E+00
  0.00000000E+00  0.00000000E+00  1.00000000E+00  0.00000000E+00  0.00000000E+00
  0.00000000E+00  0.00000000E+00  1.00000000E+00  0.00000000E+00  0.00000000E+00
  0.00000000E+00  0.00000000E+00  1.00000000E+00  0.00000000E+00  0.00000000E+00
  0.00000000E+00  0.00000000E+00  0.00000000E+00  1.00000000E+00  1.00000000E+00
  0.00000000E+00  1.00000000E+00  0.00000000E+00  0.00000000E+00  0.00000000E+00
  0.00000000E+00  0.00000000E+00  0.00000000E+00  0.00000000E+00  0.00000000E+00
  0.00000000E+00  0.00000000E+00
MxBond                                     I                3
NBond                                      I   N=          18
           3           1           2           2           3           1
           2           3           3           1           2           3
           3           1           1           1           1           1
IBond                                      I   N=          54
           2           3          16           1           0           0
           1           4           0           3           5           0
           4           6           7           5           0           0
           5           8           0           7           9          13
           8          10          11           9           0           0
           9          12           0          11          17          18
           8          14          15          13           0           0
          13           0           0           1           0           0
          12           0           0          12           0           0
RBond                                      R   N=          54
  2.00000000E+00  1.50000000E+00  1.00000000E+00  2.00000000E+00  0.00000000E+00
  0.00000000E+00  1.50000000E+00  1.00000000E+00  0.00000000E+00  1.00000000E+00
  1.00000000E+00  0.00000000E+00  1.00000000E+00  2.00000000E+00  1.50000000E+00
  2.00000000E+00  0.00000000E+00  0.00000000E+00  1.50000000E+00  1.00000000E+00
  0.00000000E+00  1.00000000E+00  1.00000000E+00  1.00000000E+00  1.00000000E+00
  2.00000000E+00  1.50000000E+00  2.00000000E+00  0.00000000E+00  0.00000000E+00
  1.50000000E+00  1.00000000E+00  0.00000000E+00  1.00000000E+00  1.00000000E+00
  1.00000000E+00  1.00000000E+00  1.00000000E+00  1.00000000E+00  1.00000000E+00
  0.00000000E+00  0.00000000E+00  1.00000000E+00  0.00000000E+00  0.00000000E+00
  1.00000000E+00  0.00000000E+00  0.00000000E+00  1.00000000E+00  0.00000000E+00
  0.00000000E+00  1.00000000E+00  0.00000000E+00  0.00000000E+00
Virial Ratio                               R      9.972300014481290E-01
SCF Energy                                 R     -4.008427937482111E-01
Total Energy                               R     -4.008427937482111E-01
RMS Density                                R      5.760158980699403E-09
Job Status                                 I                1
Nuclear derivative order                   I                0
External E-field                           R   N=          35
  0.00000000E+00  0.00000000E+00  0.00000000E+00  0.00000000E+00  0.00000000E+00
  0.00000000E+00  0.00000000E+00  0.00000000E+00  0.00000000E+00  0.00000000E+00
  0.00000000E+00  0.00000000E+00  0.00000000E+00  0.00000000E+00  0.00000000E+00
  0.00000000E+00  0.00000000E+00  0.00000000E+00  0.00000000E+00  0.00000000E+00
  0.00000000E+00  0.00000000E+00  0.00000000E+00  0.00000000E+00  0.00000000E+00
  0.00000000E+00  0.00000000E+00  0.00000000E+00  0.00000000E+00  0.00000000E+00
  0.00000000E+00  0.00000000E+00  0.00000000E+00  0.00000000E+00  0.00000000E+00
IOpCl                                      I                0
IROHF                                      I                0
Alpha Orbital Energies                     R   N=          63
 -1.84578458E+00 -1.77563550E+00 -1.75017663E+00 -1.72001961E+00 -1.68689193E+00
 -1.63213133E+00 -1.60841156E+00 -1.55032815E+00 -1.49327237E+00 -1.42528033E+00
 -1.37453618E+00 -1.32577300E+00 -1.28698350E+00 -1.23886932E+00 -1.22651970E+00
 -1.20103315E+00 -1.18873735E+00 -1.16635709E+00 -1.13427052E+00 -1.12587579E+00
 -1.11223718E+00 -1.09475720E+00 -1.08738412E+00 -1.06691563E+00 -1.05419643E+00
 -1.04379167E+00 -1.02426421E+00 -9.95602087E-01 -9.91156667E-01 -9.58630530E-01
 -9.34339714E-01 -9.27626882E-01 -9.25780636E-01 -8.54061913E-01 -7.73785859E-01
 -6.63209296E-01 -6.61499336E-01 -6.31551259E-01 -6.23160783E-01 -6.14399428E-01
 -6.05216227E-01 -5.93379925E-01 -5.74909247E-01 -5.72695200E-01 -5.51311517E-01
 -5.30985863E-01 -5.06088007E-01 -4.97912552E-01 -4.85076476E-01 -4.79822419E-01
 -4.74445941E-01 -4.61835945E-01 -4.56992559E-01 -4.48089546E-01 -4.45170870E-01
 -4.24840153E-01 -4.07799661E-01 -4.06021043E-01 -3.85876206E-01 -3.60743695E-01
 -3.58171519E-01 -3.25328538E-01 -2.43493744E-01
Alpha MO coefficients                      R   N=        3969
 -7.55377647E-04 -2.20315844E-04 -7.69660583E-06 -3.19223823E-04 -4.47568746E-04
 -6.46289766E-05  3.20420855E-04 -2.01310957E-04 -1.35743843E-03 -2.94324732E-04
 -4.50618183E-04 -8.20351467E-05 -5.21471769E-05 -9.56837460E-04  6.27199147E-04
  2.20973140E-03  1.74537835E-02 -9.01543282E-03 -1.27650590E-03  1.41697361E-02
  7.10719632E-03 -2.40478489E-03 -6.80715606E-03  2.78285221E-03  6.88357064E-02
 -1.34175825E-02  1.11477243E-02  3.66808550E-02  1.42709724E-01  3.28594827E-02
 -6.22273638E-02  7.92157024E-02  5.33058476E-01  3.48946370E-02 -1.66923813E-01
  1.08653038E-01  5.65612355E-01  2.15519831E-02  2.89152762E-01 -1.57169000E-02
  3.91081600E-01 -2.91236727E-02 -1.85963815E-01 -5.38380544E-02  1.48388443E-01
 -5.23526337E-02  9.29608197E-03 -9.29891615E-02  3.74676523E-02  3.44951500E-02
 -2.06625414E-03  2.35315486E-02  1.53627782E-02  1.51327960E-02 -3.78340661E-03
 -2.91682627E-03  5.83749463E-04  3.65394818E-03 -1.28120658E-03  3.42307852E-03
 -1.66364880E-04  4.43890604E-02  4.03723601E-02  5.55346221E-02  1.16792103E-02
  9.29031032E-03  2.81362930E-02  4.10568176E-02 -5.35221098E-04 -2.69812423E-02
  8.56908585E-03  8.49811240E-02 -3.25667210E-03  4.21499817E-02  2.03495957E-02
  1.45173128E-01 -7.66180892E-02  5.66884521E-02  5.20032359E-02  5.40391851E-01
 -8.12025381E-02  1.24970308E-01  9.15966018E-02  4.60383427E-01 -4.24990513E-02
 -2.77100915E-01  3.46957030E-03  4.81425451E-01  6.69259385E-02  1.81943576E-01
 -6.18588975E-02  1.79342286E-01  7.77588766E-02 -2.00654688E-02 -8.63198928E-02
  9.11970724E-03 -2.96616315E-03  4.61679315E-02 -6.38686955E-02 -7.43830306E-02
 -1.54684178E-03 -1.72106960E-02 -1.22046156E-02 -2.57770273E-02 -4.01401871E-03
  1.50929992E-02 -1.89983840E-02 -2.42974014E-02  6.83268306E-03 -2.72713371E-03
  9.41578663E-03  4.23702059E-02  3.86140744E-02  9.66266942E-03 -9.17659697E-03
  3.26066169E-03  5.26382248E-03  1.63754021E-04 -3.85262413E-03  1.91814807E-02
  1.38625649E-02 -4.81712477E-03  8.92063065E-03  1.07446690E-02 -8.76218760E-03
 -6.76570567E-03 -4.15525573E-03 -8.07788139E-04 -7.28147337E-04 -1.63441696E-03
 -3.38188089E-03 -5.55117454E-05  2.05941722E-03 -6.28561327E-04 -5.63297255E-03
  8.98582709E-05 -2.33129074E-03 -7.76324851E-04 -5.71030041E-03  2.93722219E-03
 -8.92143015E-04 -5.52711272E-04 -1.21139673E-02  2.66531468E-03  9.51012169E-04
 -4.71763979E-04 -6.45144370E-03  9.12893422E-04  4.97489978E-03  9.14805946E-04
 -2.20894081E-02  3.83518646E-03  3.21889437E-03  1.35343129E-03  2.68182358E-02
  1.80421680E-02  3.22478349E-02  4.46203897E-02  8.44439039E-02  1.03226025E-01
  3.82000866E-01  1.39353339E-01 -5.39271429E-01  1.90792403E-02 -9.31902460E-02
  5.66709500E-02  5.99887739E-01  1.18517173E-02 -1.46276636E-01  4.08999525E-03
  2.90567124E-01 -7.14781262E-02  5.43138554E-02 -1.29393586E-01 -8.46631707E-03
 -3.66457147E-03  7.53370255E-03  2.49728992E-03  7.88133595E-04  1.32512631E-03
  2.41660123E-03  1.46990318E-03 -3.02829079E-03 -1.30033741E-03  1.91665672E-03
 -7.29177223E-04 -9.26269927E-04  1.00646514E-01  8.89412037E-02  4.96853860E-01
  8.88300531E-02  1.40492506E-01  1.32667449E-01  4.95345812E-01 -1.58508840E-02
 -2.70335070E-01  3.61435939E-02  4.83772320E-01 -1.11751069E-02  2.05376503E-01
 -4.47296121E-02  1.95308927E-01 -8.40345513E-02 -1.34292157E-02 -1.21065215E-01
 -1.61690745E-02  2.48334290E-02 -6.88491986E-02 -7.45288206E-02 -1.01539692E-01
  9.25413854E-03  3.41855435E-02 -1.61415499E-02 -6.90334303E-02  9.49346349E-03
 -3.16921805E-02 -2.30695314E-02 -5.84385283E-02 -1.40930856E-02  8.82152222E-03
  1.38538103E-02 -1.06553842E-02  5.32533155E-03 -1.20241009E-02  2.48852894E-02
  1.73333443E-02  1.58288035E-03  1.28630772E-03  6.29185858E-03  1.66410156E-02
  4.32338321E-03 -6.38941388E-03  1.10276104E-02  1.66236440E-02 -3.59953481E-03
  2.60040084E-03 -5.53885265E-03 -2.11474713E-02 -1.33798980E-02 -4.27473008E-03
  7.69747222E-06 -5.28898605E-03 -3.73240420E-03  3.03352077E-04  2.88159692E-03
 -8.22235905E-03 -4.23555138E-03  1.97384094E-03 -4.62353361E-03  1.15484505E-01
  6.19176644E-03  5.10412302E-03  1.86804623E-03  8.08917375E-06  9.92600198E-03
 -3.30726448E-03  1.49535112E-02 -5.43849584E-04 -4.30715539E-03  1.19939783E-03
 -2.50401643E-02 -7.62135477E-04  9.21294489E-04 -1.12620953E-02 -7.24580769E-03
  1.54094271E-02  4.06135765E-02 -1.32796582E-03  6.81943527E-02  1.27988765E-01
  3.43813785E-01 -9.45847526E-02  5.52161226E-01  1.31616919E-02 -1.63656394E-01
 -3.89916076E-02 -4.79346348E-01  4.13808948E-02 -7.33081044E-02 -4.69971424E-02
 -3.59566843E-01 -4.96215564E-02  7.57083031E-02  5.18376182E-02 -1.04427520E-01
  3.68053370E-02 -9.63775292E-02  1.47943485E-01  1.29963856E-01  1.20251909E-02
 -2.05211350E-03  3.98774635E-02  6.49455362E-02  3.70523822E-02 -2.61924392E-02
  8.44868832E-02  1.03963182E-01 -1.83783572E-02  1.68591883E-02 -2.79210746E-02
 -1.63263210E-01 -8.59766067E-02 -3.14124745E-02 -6.67054272E-03 -5.12465268E-02
 -3.09087005E-02  3.14125916E-03  2.48953475E-02 -6.42830227E-02 -2.81585360E-02
  1.59089855E-02 -3.56269818E-02  3.11173170E-05  4.02800209E-02  3.33894103E-02
  6.68693520E-02 -2.39557450E-02  2.88894486E-01 -1.15716269E-01  5.07662885E-01
 -3.20593543E-02 -1.37393283E-01 -2.72226683E-02 -4.07171611E-01 -2.23953731E-02
 -8.21338129E-02 -6.68146237E-02 -2.85572416E-01  1.11728449E-01  2.26406590E-02
  5.25129897E-02 -1.45341990E-01  6.73143253E-03  1.88548174E-01  4.76756389E-02
  1.96102123E-01 -2.68086865E-03 -6.68027775E-03  1.06609911E-02 -8.94570489E-02
 -1.05134569E-01 -5.07812501E-03  1.27527896E-01  2.34984898E-01 -3.80097209E-02
 -3.69007516E-02  5.18675905E-02  1.33374044E-01 -4.56633245E-02  9.20696326E-02
 -9.84243746E-02 -1.02074075E-01 -1.61243952E-02  2.31226714E-02 -3.06997627E-02
 -4.78792631E-02 -6.03476310E-02  1.21251262E-02 -1.12676829E-01 -1.40615659E-01
  1.56909520E-02 -2.53094830E-02  2.60852061E-02  1.79099297E-01  4.86041844E-02
  3.96565533E-02  2.68424800E-02  8.67862326E-02  3.92891500E-02 -4.74768829E-03
 -3.54768630E-02  7.40366696E-02  2.01195398E-02 -1.55969902E-02  4.23553999E-02
  1.49991926E-02 -5.74795712E-02 -4.90388443E-02  3.66652983E-02  3.18322048E-02
 -2.19507980E-01  1.02053361E-01 -3.38448147E-01  2.28699197E-02  6.44102881E-02
  2.52785124E-02  3.55965631E-01  5.54740288E-03  8.00559109E-02 -1.72648972E-02
  8.92074193E-02 -2.40607299E-02 -2.69689149E-02 -1.21348221E-01 -1.17715667E-01
  8.75584726E-02  1.67909786E-01 -9.52277159E-02  2.06588379E-01  1.77307987E-02
 -9.30180474E-03 -2.81085779E-02 -2.61938158E-01 -1.11168736E-01 -5.82978322E-02
  1.16599320E-01  2.59589045E-01 -1.01672235E-01 -3.55008212E-02  1.26230232E-01
  2.12843785E-01 -6.75666289E-02  1.37656371E-01 -1.04043026E-01 -1.41079403E-01
 -2.49641788E-02  4.58669470E-02 -3.51998644E-02 -5.17421050E-02 -1.08066786E-01
  5.28413827E-03 -1.89742908E-01 -2.40516345E-01  1.98009655E-02 -4.45908530E-02
  3.47984165E-02  2.71925939E-01  4.21609770E-02  6.33852606E-02  4.98216225E-02
  1.53865603E-01  6.22209726E-02 -7.97737283E-03 -5.95354879E-02  1.17850820E-01
  2.44415300E-02 -2.35777641E-02  6.68360501E-02  1.50911160E-02 -1.01036607E-01
 -8.69023981E-02  1.06723195E-02  2.21497517E-03 -1.26632351E-02  5.64142429E-03
 -1.50247659E-02  9.05821424E-04 -3.40783077E-04  1.47669130E-03  1.93048637E-02
 -2.73180758E-03  4.06603455E-03 -1.06298062E-02 -1.90361474E-02  5.15876980E-03
 -5.26394421E-03 -1.55654093E-02 -3.04370970E-02 -1.00612221E-02  2.70985376E-02
 -6.71468067E-03  2.56005509E-02 -3.88899442E-03  5.41400855E-03 -2.38872616E-03
 -3.37808672E-03 -6.39397314E-02  3.50160628E-03  1.01581413E-03  9.41520831E-02
 -1.85538472E-01  2.90217692E-03 -1.29058979E-01 -2.38016095E-01 -5.78311811E-02
 -1.41370136E-01 -4.04168920E-02  1.17216100E-01 -1.90843258E-02 -6.98547780E-02
 -4.37408008E-03 -1.18344127E-02  1.62811717E-01  4.66882840E-02  3.11572726E-01
  4.23805391E-01 -1.11431438E-02  8.29241458E-02 -1.05239420E-02  4.59826155E-01
 -4.87881767E-02  1.29573287E-01 -2.86771180E-02  2.67494168E-01  7.14359560E-02
 -8.69731592E-03 -1.18199594E-01  3.25353176E-01  4.57384545E-02 -5.91668533E-02
  1.40165361E-01  4.12057404E-03  1.95979925E-01  1.63746978E-01 -1.71782248E-01
 -1.71628704E-02  1.33306678E-01 -4.13835186E-02  1.34134326E-01 -3.43319023E-03
  3.43409894E-02 -6.85839465E-03 -1.48062374E-01  6.46236845E-02 -2.60947472E-02
  1.87287980E-01  3.02715557E-01 -8.38176743E-02  5.84903150E-02  1.15924095E-01
  2.76444344E-01  8.02767471E-02 -1.81418350E-01 -1.22119304E-01 -1.68190875E-01
  2.81145221E-02 -7.11666201E-02 -4.50558810E-02 -1.31400443E-01  1.86067160E-01
 -3.17369817E-02 -2.30037905E-01 -2.19685739E-01 -1.50296388E-01  8.06553624E-02