 Entering Gaussian System, Link 0=g16
 Input=NCCONCCOCCCNCCOCCCNCCOCCNCCNNCCONCCOCCCNCCOCOCNCCOCOCNCCOCCCNCCOCO_6.gjf
 Output=NCCONCCOCCCNCCOCCCNCCOCCNCCNNCCONCCOCCCNCCOCOCNCCOCOCNCCOCCCNCCOCO_6.log
 Initial command:
 /work/01114/jfonner/frontera/gaussian/16rC.01/g16/l1.exe "/scratch1/08249/sa748948/lsqc/26989325/Gau-41086.inp" -scrdir="/scratch1/08249/sa748948/lsqc/26989325/"
 Entering Link 1 = /work/01114/jfonner/frontera/gaussian/16rC.01/g16/l1.exe PID=     41096.
  
 Copyright (c) 1988-2019, Gaussian, Inc.  All Rights Reserved.
  
 This is part of the Gaussian(R) 16 program.  It is based on
 the Gaussian(R) 09 system (copyright 2009, Gaussian, Inc.),
 the Gaussian(R) 03 system (copyright 2003, Gaussian, Inc.),
 the Gaussian(R) 98 system (copyright 1998, Gaussian, Inc.),
 the Gaussian(R) 94 system (copyright 1995, Gaussian, Inc.),
 the Gaussian 92(TM) system (copyright 1992, Gaussian, Inc.),
 the Gaussian 90(TM) system (copyright 1990, Gaussian, Inc.),
 the Gaussian 88(TM) system (copyright 1988, Gaussian, Inc.),
 the Gaussian 86(TM) system (copyright 1986, Carnegie Mellon
 University), and the Gaussian 82(TM) system (copyright 1983,
 Carnegie Mellon University). Gaussian is a federally registered
 trademark of Gaussian, Inc.
  
 This software contains proprietary and confidential information,
 including trade secrets, belonging to Gaussian, Inc.
  
 This software is provided under written license and may be
 used, copied, transmitted, or stored only in accord with that
 written license.
  
 The following legend is applicable only to US Government
 contracts under FAR:
  
                    RESTRICTED RIGHTS LEGEND
  
 Use, reproduction and disclosure by the US Government is
 subject to restrictions as set forth in subparagraphs (a)
 and (c) of the Commercial Computer Software - Restricted
 Rights clause in FAR 52.227-19.
  
 Gaussian, Inc.
 340 Quinnipiac St., Bldg. 40, Wallingford CT 06492
  
  
 ---------------------------------------------------------------
 Warning -- This program may not be used in any manner that
 competes with the business of Gaussian, Inc. or will provide
 assistance to any competitor of Gaussian, Inc.  The licensee
 of this program is prohibited from giving any competitor of
 Gaussian, Inc. access to this program.  By using this program,
 the user acknowledges that Gaussian, Inc. is engaged in the
 business of creating and licensing software in the field of
 computational chemistry and represents and warrants to the
 licensee that it is not a competitor of Gaussian, Inc. and that
 it will not use this program in any manner prohibited above.
 ---------------------------------------------------------------
  

 Cite this work as:
 Gaussian 16, Revision C.01,
 M. J. Frisch, G. W. Trucks, H. B. Schlegel, G. E. Scuseria, 
 M. A. Robb, J. R. Cheeseman, G. Scalmani, V. Barone, 
 G. A. Petersson, H. Nakatsuji, X. Li, M. Caricato, A. V. Marenich, 
 J. Bloino, B. G. Janesko, R. Gomperts, B. Mennucci, H. P. Hratchian, 
 J. V. Ortiz, A. F. Izmaylov, J. L. Sonnenberg, D. Williams-Young, 
 F. Ding, F. Lipparini, F. Egidi, J. Goings, B. Peng, A. Petrone, 
 T. Henderson, D. Ranasinghe, V. G. Zakrzewski, J. Gao, N. Rega, 
 G. Zheng, W. Liang, M. Hada, M. Ehara, K. Toyota, R. Fukuda, 
 J. Hasegawa, M. Ishida, T. Nakajima, Y. Honda, O. Kitao, H. Nakai, 
 T. Vreven, K. Throssell, J. A. Montgomery, Jr., J. E. Peralta, 
 F. Ogliaro, M. J. Bearpark, J. J. Heyd, E. N. Brothers, K. N. Kudin, 
 V. N. Staroverov, T. A. Keith, R. Kobayashi, J. Normand, 
 K. Raghavachari, A. P. Rendell, J. C. Burant, S. S. Iyengar, 
 J. Tomasi, M. Cossi, J. M. Millam, M. Klene, C. Adamo, R. Cammi, 
 J. W. Ochterski, R. L. Martin, K. Morokuma, O. Farkas, 
 J. B. Foresman, and D. J. Fox, Gaussian, Inc., Wallingford CT, 2019.
 
 ******************************************
 Gaussian 16:  ES64L-G16RevC.01  3-Jul-2019
                 7-Jan-2022 
 ******************************************
 %chk=NCCONCCOCCCNCCOCCCNCCOCCNCCNNCCONCCOCCCNCCOCOCNCCOCOCNCCOCCCNCCOCO_6.chk
 %nproc=56
 Will use up to   56 processors via shared memory.
 %mem=3gb
 ---------------------------------
 #p int=acc2e=12 pm6 charge nosymm
 ---------------------------------
 1/18=10,28=-2,38=1,125=101,172=1/1;
 2/12=2,15=1,17=6,18=5,40=1/2;
 3/5=2,25=1,27=12,41=3900000/1,2,3;
 4/35=1/1;
 5/5=2,35=1,38=5,87=12/2;
 6/7=2,8=2,9=2,10=2,28=1,87=12/1;
 99/5=1,9=1/99;
 Leave Link    1 at Fri Jan  7 12:00:13 2022, MaxMem=   402653184 cpu:               2.8 elap:               0.5
 (Enter /work/01114/jfonner/frontera/gaussian/16rC.01/g16/l101.exe)
 --------------
 Atom number=21
 --------------
 Symbolic Z-matrix:
 Charge =  3 Multiplicity = 1
 c                     4.271     0.81698   11.296 
 o                     4.35899   2.03299   11.36699 
 n                     3.49199   0.10401   12.07299 
 c                     2.58499   0.67699   13.085 
 c                     3.006     0.047     14.36101 
 o                     2.95799  -1.169     14.515 
 n                     3.481     0.887     15.26199 
 c                     4.163     0.39199   16.44199 
 c                     1.127     0.33      12.82699 
 c                     0.248     0.67499   14.03799 
 c                     3.424     0.96499   17.63099 
 o                     3.136     2.11      17.61199 
 n                     3.173     0.129     18.647 
 c                     2.559     0.51601   19.90301 
 c                     5.688     0.75001   16.38901 
 o                     6.264     0.13001   15.23599 
 c                     6.42      0.21      17.56899 
 h                     4.84397   0.24331   10.59778 
 h                     0.80274   0.84321   11.94588 
 h                     3.12112   0.0626    20.69254 
 h                     1.55948   0.13828   19.95928 
 
 ITRead=  0  0  0  0  0  0  0  0  0  0  0  0  0  0  0  0  0  0  0  0
 ITRead=  0
 MicOpt= -1 -1 -1 -1 -1 -1 -1 -1 -1 -1 -1 -1 -1 -1 -1 -1 -1 -1 -1 -1
 MicOpt= -1
 NAtoms=     21 NQM=       21 NQMF=       0 NMMI=      0 NMMIF=      0
                NMic=       0 NMicF=      0.
                    Isotopes and Nuclear Properties:
 (Nuclear quadrupole moments (NQMom) in fm**2, nuclear magnetic moments (NMagM)
  in nuclear magnetons)

  Atom         1           2           3           4           5           6           7           8           9          10
 IAtWgt=          12          16          14          12          12          16          14          12          12          12
 AtmWgt=  12.0000000  15.9949146  14.0030740  12.0000000  12.0000000  15.9949146  14.0030740  12.0000000  12.0000000  12.0000000
 NucSpn=           0           0           2           0           0           0           2           0           0           0
 AtZEff=  -0.0000000  -0.0000000  -0.0000000  -0.0000000  -0.0000000  -0.0000000  -0.0000000  -0.0000000  -0.0000000  -0.0000000
 NQMom=    0.0000000   0.0000000   2.0440000   0.0000000   0.0000000   0.0000000   2.0440000   0.0000000   0.0000000   0.0000000
 NMagM=    0.0000000   0.0000000   0.4037610   0.0000000   0.0000000   0.0000000   0.4037610   0.0000000   0.0000000   0.0000000
 AtZNuc=   6.0000000   8.0000000   7.0000000   6.0000000   6.0000000   8.0000000   7.0000000   6.0000000   6.0000000   6.0000000

  Atom        11          12          13          14          15          16          17          18          19          20
 IAtWgt=          12          16          14          12          12          16          12           1           1           1
 AtmWgt=  12.0000000  15.9949146  14.0030740  12.0000000  12.0000000  15.9949146  12.0000000   1.0078250   1.0078250   1.0078250
 NucSpn=           0           0           2           0           0           0           0           1           1           1
 AtZEff=  -0.0000000  -0.0000000  -0.0000000  -0.0000000  -0.0000000  -0.0000000  -0.0000000  -0.0000000  -0.0000000  -0.0000000
 NQMom=    0.0000000   0.0000000   2.0440000   0.0000000   0.0000000   0.0000000   0.0000000   0.0000000   0.0000000   0.0000000
 NMagM=    0.0000000   0.0000000   0.4037610   0.0000000   0.0000000   0.0000000   0.0000000   2.7928460   2.7928460   2.7928460
 AtZNuc=   6.0000000   8.0000000   7.0000000   6.0000000   6.0000000   8.0000000   6.0000000   1.0000000   1.0000000   1.0000000

  Atom        21
 IAtWgt=           1
 AtmWgt=   1.0078250
 NucSpn=           1
 AtZEff=  -0.0000000
 NQMom=    0.0000000
 NMagM=    2.7928460
 AtZNuc=   1.0000000
 Background charge distribution read from input stream:
 Point Charges:
 XYZ=   -6.8150   -0.6680    1.6070 Q=    0.1840 A=    0.0000 R=    0.0000 C=    0.0000
 XYZ=   -5.7140    0.0020    2.3730 Q=    0.1690 A=    0.0000 R=    0.0000 C=    0.0000
 XYZ=   -4.3570   -0.6730    2.5880 Q=    0.1957 A=    0.0000 R=    0.0000 C=    0.0000
 XYZ=   -4.2120   -1.8700    2.4920 Q=   -0.4612 A=    0.0000 R=    0.0000 C=    0.0000
 XYZ=   -3.3810    0.1250    2.9530 Q=   -0.3003 A=    0.0000 R=    0.0000 C=    0.0000
 XYZ=   -2.0620   -0.3900    3.2740 Q=    0.2639 A=    0.0000 R=    0.0000 C=    0.0000
 XYZ=   -1.6360    0.1750    4.6000 Q=    0.1489 A=    0.0000 R=    0.0000 C=    0.0000
 XYZ=   -1.7440    1.3560    4.8620 Q=   -0.3095 A=    0.0000 R=    0.0000 C=    0.0000
 XYZ=   -0.9930   -0.0450    2.1970 Q=   -1.2213 A=    0.0000 R=    0.0000 C=    0.0000
 XYZ=    0.3900   -0.4880    2.6400 Q=    0.9359 A=    0.0000 R=    0.0000 C=    0.0000
 XYZ=   -1.3780   -0.6620    0.8970 Q=    0.8742 A=    0.0000 R=    0.0000 C=    0.0000
 XYZ=   -1.0950   -0.7000    5.4150 Q=   -0.4278 A=    0.0000 R=    0.0000 C=    0.0000
 XYZ=   -0.5720   -0.3110    6.6690 Q=    0.2444 A=    0.0000 R=    0.0000 C=    0.0000
 XYZ=    0.8400   -0.8540    6.7920 Q=    0.2936 A=    0.0000 R=    0.0000 C=    0.0000
 XYZ=    1.0270   -2.0220    6.7200 Q=   -0.4614 A=    0.0000 R=    0.0000 C=    0.0000
 XYZ=   -1.4110   -0.9130    7.7970 Q=   -1.2094 A=    0.0000 R=    0.0000 C=    0.0000
 XYZ=   -0.7270   -0.6450    9.1230 Q=    0.9838 A=    0.0000 R=    0.0000 C=    0.0000
 XYZ=   -2.8000   -0.3490    7.7890 Q=    0.9737 A=    0.0000 R=    0.0000 C=    0.0000
 XYZ=    1.8100    0.0020    7.0230 Q=   -0.6094 A=    0.0000 R=    0.0000 C=    0.0000
 XYZ=    3.1910   -0.4290    7.1010 Q=   -0.0383 A=    0.0000 R=    0.0000 C=    0.0000
 XYZ=    3.9110    0.2580    8.2290 Q=    0.2652 A=    0.0000 R=    0.0000 C=    0.0000
 XYZ=    4.0640    1.4780    8.2280 Q=   -0.5489 A=    0.0000 R=    0.0000 C=    0.0000
 XYZ=    3.8710   -0.1030    5.7480 Q=    0.4467 A=    0.0000 R=    0.0000 C=    0.0000
 XYZ=    5.2470   -0.6430    5.5810 Q=   -0.4177 A=    0.0000 R=    0.0000 C=    0.0000
 XYZ=    5.8610   -0.6890    4.3530 Q=   -0.2968 A=    0.0000 R=    0.0000 C=    0.0000
 XYZ=    6.1080   -1.1970    6.4480 Q=    0.2630 A=    0.0000 R=    0.0000 C=    0.0000
 XYZ=    7.0590   -1.2270    4.4820 Q=    0.6103 A=    0.0000 R=    0.0000 C=    0.0000
 XYZ=    7.2390   -1.5230    5.7510 Q=   -0.3347 A=    0.0000 R=    0.0000 C=    0.0000
 XYZ=    4.3640   -0.5270    9.1890 Q=   -0.5070 A=    0.0000 R=    0.0000 C=    0.0000
 XYZ=    5.0670    0.0200   10.3260 Q=    0.3996 A=    0.0000 R=    0.0000 C=    0.0000
 XYZ=    0.6740    1.0470   11.5960 Q=    0.9278 A=    0.0000 R=    0.0000 C=    0.0000
 XYZ=    3.3500   -0.1220   21.0140 Q=    0.1847 A=    0.0000 R=    0.0000 C=    0.0000
 XYZ=    3.3660   -1.3390   21.1400 Q=   -0.4163 A=    0.0000 R=    0.0000 C=    0.0000
 XYZ=    1.1380   -0.0210   19.9830 Q=   -0.2907 A=    0.0000 R=    0.0000 C=    0.0000
 XYZ=    0.3930    0.3940   18.8240 Q=   -0.3415 A=    0.0000 R=    0.0000 C=    0.0000
 XYZ=    0.4860    0.5010   21.1670 Q=    0.7765 A=    0.0000 R=    0.0000 C=    0.0000
 XYZ=    4.0670    0.6880   21.7680 Q=   -0.6191 A=    0.0000 R=    0.0000 C=    0.0000
 XYZ=    4.8880    0.2050   22.8510 Q=    0.2833 A=    0.0000 R=    0.0000 C=    0.0000
 XYZ=    4.3500    0.7690   24.1740 Q=    0.1730 A=    0.0000 R=    0.0000 C=    0.0000
 XYZ=    4.1610    1.9810   24.2690 Q=   -0.2861 A=    0.0000 R=    0.0000 C=    0.0000
 XYZ=    6.3620    0.6140   22.6520 Q=   -1.1933 A=    0.0000 R=    0.0000 C=    0.0000
 XYZ=    7.1520    0.2970   23.8740 Q=    0.8585 A=    0.0000 R=    0.0000 C=    0.0000
 XYZ=    6.9530   -0.1210   21.4550 Q=    0.9590 A=    0.0000 R=    0.0000 C=    0.0000
 XYZ=    4.0650   -0.1200   25.1510 Q=   -0.4907 A=    0.0000 R=    0.0000 C=    0.0000
 XYZ=    3.7200    0.3130   26.5150 Q=   -0.3576 A=    0.0000 R=    0.0000 C=    0.0000
 XYZ=    4.9410    0.1400   27.4200 Q=    0.0549 A=    0.0000 R=    0.0000 C=    0.0000
 XYZ=    5.7140   -0.8090   27.2870 Q=   -0.0565 A=    0.0000 R=    0.0000 C=    0.0000
 XYZ=    2.4990   -0.4220   27.0620 Q=    1.1023 A=    0.0000 R=    0.0000 C=    0.0000
 XYZ=    5.2500    0.9550   28.2940 Q=    0.3115 A=    0.0000 R=    0.0000 C=    0.0000
 Pt Chg Charge=              1.6878 electrons
 Pt Chg Dipole moment (Debye):
    X=              7.0822    Y=             -1.1807    Z=            145.3025  Tot=            145.4798
 Pt Chg Quadrupole moment (Debye-Ang):
   XX=            237.8890   YY=            -27.2304   ZZ=           3570.3168
   XY=            -33.2698   XZ=            406.0891   YZ=            -36.4368
 Pt Chg Traceless Quadrupole moment (Debye-Ang):
   XX=          -1022.4361   YY=          -1287.5556   ZZ=           2309.9917
   XY=            -33.2698   XZ=            406.0891   YZ=            -36.4368
 Pt Chg Octapole moment (Debye-Ang**2):
  XXX=           1293.3249  YYY=             19.2536  ZZZ=          92833.2369  XYY=            -29.3831
  XXY=           -160.6741  XXZ=           4320.3568  XZZ=          12317.6848  YZZ=          -1555.9477
  YYZ=           -287.2084  XYZ=           -499.8072
 Pt Chg Hexadecapole moment (Debye-Ang**3):
 XXXX=          16426.8494 YYYY=           -105.3499 ZZZZ=        2515511.4699 XXXY=          -1041.1252
 XXXZ=          34342.2985 YYYX=           -103.1776 YYYZ=            -11.8205 ZZZX=         343776.7636
 ZZZY=         -45033.9696 XXYY=           -364.6822 XXZZ=         102022.3719 YYZZ=          -4512.7899
 XXYZ=          -2505.8394 YYXZ=           -972.6716 ZZXY=          -9981.9543
 Leave Link  101 at Fri Jan  7 12:00:15 2022, MaxMem=   402653184 cpu:               8.3 elap:               1.3
 (Enter /work/01114/jfonner/frontera/gaussian/16rC.01/g16/l202.exe)
                          Input orientation:                          
 ---------------------------------------------------------------------
 Center     Atomic      Atomic             Coordinates (Angstroms)
 Number     Number       Type             X           Y           Z
 ---------------------------------------------------------------------
      1          6           0        4.271002    0.816983   11.295996
      2          8           0        4.358988    2.032994   11.366992
      3          7           0        3.491993    0.104011   12.072989
      4          6           0        2.584986    0.676989   13.085005
      5          6           0        3.005998    0.046997   14.361015
      6          8           0        2.957993   -1.169004   14.515002
      7          7           0        3.481002    0.887001   15.261988
      8          6           0        4.163003    0.391994   16.441992
      9          6           0        1.127000    0.329997   12.826995
     10          6           0        0.247996    0.674994   14.037988
     11          6           0        3.424000    0.964988   17.630990
     12          8           0        3.136003    2.109999   17.611994
     13          7           0        3.173005    0.128997   18.646999
     14          6           0        2.559005    0.516008   19.903015
     15          6           0        5.687995    0.750014   16.389012
     16          8           0        6.263999    0.130006   15.235994
     17          6           0        6.419998    0.210001   17.568992
     18          1           0        4.843965    0.243305   10.597779
     19          1           0        0.802745    0.843214   11.945878
     20          1           0        3.121118    0.062604   20.692542
     21          1           0        1.559477    0.138282   19.959284
 ---------------------------------------------------------------------
                    Distance matrix (angstroms):
                    1          2          3          4          5
     1  C    0.000000
     2  O    1.221256   0.000000
     3  N    1.311069   2.229594   0.000000
     4  C    2.462275   2.817339   1.474836   0.000000
     5  C    3.404035   3.839133   2.339766   1.484029   0.000000
     6  O    4.003765   4.703780   2.805201   2.364682   1.226652
     7  N    4.044514   4.153932   3.283734   2.363515   1.320224
     8  C    5.164644   5.337314   4.429602   3.720312   2.405858
     9  C    3.530703   3.934152   2.492546   1.520756   2.442118
    10  C    4.870652   5.087105   3.835460   2.523827   2.846980
    11  C    6.393080   6.422812   5.624703   4.631725   3.422013
    12  O    6.546139   6.364092   5.901804   4.780248   3.852499
    13  N    7.464327   7.617760   6.581793   5.619773   4.290021
    14  C    8.780791   8.854652   7.896171   6.819960   5.579744
    15  C    5.286886   5.350979   4.885468   4.533261   3.435130
    16  O    4.468508   4.713768   4.205865   4.296636   3.374471
    17  C    6.658610   6.784974   6.228202   5.918744   4.687546
    18  H    1.070000   2.007456   2.005861   3.387825   4.192685
    19  H    3.528717   3.794410   2.791887   2.121704   3.364695
    20  H    9.496652   9.611485   8.627627   7.651113   6.332593
    21  H    9.103053   9.233346   8.119695   6.971198   5.782852
                    6          7          8          9         10
     6  O    0.000000
     7  N    2.249152   0.000000
     8  C    2.757182   1.450023   0.000000
     9  C    2.906701   3.432313   4.721161   0.000000
    10  C    3.312394   3.463444   4.602890   1.535635   0.000000
    11  C    3.805321   2.370971   1.512668   5.362630   4.804244
    12  O    4.513858   2.671568   2.318443   5.486412   4.813870
    13  N    4.336409   3.482490   2.431321   6.172438   5.486053
    14  C    5.659429   4.746245   3.816657   7.221862   6.305916
    15  C    3.827200   2.481888   1.567351   5.802332   5.926764
    16  O    3.624491   2.884232   2.436648   5.677327   6.158289
    17  C    4.818090   3.797143   2.529284   7.107515   7.125855
    18  H    4.571230   4.901720   5.885630   4.335061   5.757111
    19  H    3.910821   4.262812   5.631161   1.070000   2.170938
    20  H    6.301227   5.504549   4.388758   8.118795   7.274128
    21  H    5.771053   5.130052   4.383385   7.147961   6.088497
                   11         12         13         14         15
    11  C    0.000000
    12  O    1.180828   0.000000
    13  N    1.339460   2.235392   0.000000
    14  C    2.472224   2.850002   1.450637   0.000000
    15  C    2.591216   3.139731   3.436473   4.711004   0.000000
    16  O    3.807729   4.398876   4.603173   5.971354   1.430259
    17  C    3.090283   3.794267   3.422225   4.522009   1.489898
    18  H    7.211324   7.456600   8.221625   9.585553   5.874310
    19  H    6.261495   6.257293   7.143758   8.155216   6.604226
    20  H    3.206108   3.698895   2.047277   1.070000   5.057842
    21  H    3.095294   3.447155   2.079820   1.070000   5.492334
                   16         17         18         19         20
    16  O    0.000000
    17  C    2.339576   0.000000
    18  H    4.852048   7.147223   0.000000
    19  H    6.415515   7.973325   4.302177   0.000000
    20  H    6.297314   4.545426  10.242319   9.082309   0.000000
    21  H    6.666489   5.416946   9.921526   8.079868   1.726881
                   21
    21  H    0.000000
 Symmetry turned off by external request.
 Stoichiometry    C10H4N3O4(3+)
 Framework group  C1[X(C10H4N3O4)]
 Deg. of freedom    57
 Full point group                 C1      NOp   1
 Rotational constants (GHZ):           0.7473768           0.3079639           0.2481029
 Leave Link  202 at Fri Jan  7 12:00:15 2022, MaxMem=   402653184 cpu:               2.7 elap:               0.5
 (Enter /work/01114/jfonner/frontera/gaussian/16rC.01/g16/l301.exe)
 Standard basis: VSTO-6G (5D, 7F)
 Ernie: Thresh=  0.10000D-02 Tol=  0.10000D-05 Strict=F.
  NNHCO=     0 NNPyr=     0 NCTC=     0               EPep=         0.000000000
    EC=       468.602364804  ECS=         4.912630343   EG=         0.470961581
   EHC=         0.001758036  EAt=      -105.484040378  AtH=         3.975308903
 EPDDG=         0.000000000  ECC=       473.987714763 EAtT=       109.459349282
    72 basis functions,   432 primitive gaussians,    72 cartesian basis functions
    40 alpha electrons       40 beta electrons
       nuclear repulsion energy       583.4470640449 Hartrees.
 IExCor=    0 DFT=F Ex=HF Corr=None ExCW=0 ScaHFX=  1.000000
 ScaDFX=  1.000000  1.000000  1.000000  1.000000 ScalE2=  1.000000  1.000000
 IRadAn=      5 IRanWt=     -1 IRanGd=            0 ICorTp=0 IEmpDi=  4
 Integral buffers will be    131072 words long.
 Regular integral format.
 Two-electron integral symmetry is turned off.
 Background charge distribution read from rwf.
 PtFMM for NChg=        70 BoxLen=    40.00 Levels= 1 LMax=20 SMax=    51.8 ICnFMM=     1:
 Self energy of the charges =        -2.9590934695 a.u.
 MM   energy of the charges =         0.0000000000 a.u.
 Nuclei-charges interaction =        10.4775939241 a.u.
 Nuclear repulsion after external point charges =      590.9655644995 Hartrees.
 Leave Link  301 at Fri Jan  7 12:00:16 2022, MaxMem=   402653184 cpu:               5.9 elap:               0.9
 (Enter /work/01114/jfonner/frontera/gaussian/16rC.01/g16/l302.exe)
 Do NDO integrals.
 NPDir=0 NMtPBC=     1 NCelOv=     1 NCel=       1 NClECP=     1 NCelD=      1
         NCelK=      1 NCelE2=     1 NClLst=     1 CellRange=     0.0.
 One-electron integrals computed using PRISM.
 NBasis=    72 RedAO= F EigKep=  0.00D+00  NBF=    72
 NBsUse=    72 1.00D-04 EigRej=  0.00D+00 NBFU=    72
 Leave Link  302 at Fri Jan  7 12:00:20 2022, MaxMem=   402653184 cpu:              22.6 elap:               4.2
 (Enter /work/01114/jfonner/frontera/gaussian/16rC.01/g16/l303.exe)
 DipDrv:  MaxL=1.
 Leave Link  303 at Fri Jan  7 12:00:21 2022, MaxMem=   402653184 cpu:               3.0 elap:               0.7
 (Enter /work/01114/jfonner/frontera/gaussian/16rC.01/g16/l401.exe)
 Simple Huckel Guess.
 JPrj=0 DoOrth=F DoCkMO=F.
 Leave Link  401 at Fri Jan  7 12:00:23 2022, MaxMem=   402653184 cpu:              12.4 elap:               2.4
 (Enter /work/01114/jfonner/frontera/gaussian/16rC.01/g16/l502.exe)
 Keep J ints in memory in canonical form, NReq=875322.
 FoFCou: FMM=F IPFlag=           0 FMFlag=           0 FMFlg1=           0
         NFxFlg=           0 DoJE=F BraDBF=F KetDBF=F FulRan=T
         wScrn=  0.000000 ICntrl=       600 IOpCl=  2 I1Cent=           0 NGrid=           0
         NMat0=    1 NMatS0=    174 NMatT0=    0 NMatD0=    1 NMtDS0=    0 NMtDT0=    0
 Symmetry not used in FoFCou.
 Two-electron integral symmetry not used.
 Closed shell SCF:
 Using DIIS extrapolation, IDIIS=  1040.
 Overlap will be assumed to be unity.
 NGot=   402653184 LenX=   402563065 LenY=   402557440
 Requested convergence on RMS density matrix=1.00D-08 within 128 cycles.
 Requested convergence on MAX density matrix=1.00D-06.
 Requested convergence on             energy=1.00D-06.
 No special actions if energy rises.

 Cycle   1  Pass 1  IDiag  1:
 E=  1.67202270805910    
 DIIS: error= 4.91D-02 at cycle   1 NSaved=   1.
 NSaved= 1 IEnMin= 1 EnMin=  1.67202270805910     IErMin= 1 ErrMin= 4.91D-02
 ErrMax= 4.91D-02  0.00D+00 EMaxC= 1.00D-01 BMatC= 2.95D-01 BMatP= 2.95D-01
 IDIUse=3 WtCom= 5.09D-01 WtEn= 4.91D-01
 Coeff-Com:  0.100D+01
 Coeff-En:   0.100D+01
 Coeff:      0.100D+01
 GapD=    2.000 DampG=2.000 DampE=0.500 DampFc=1.0000 IDamp=-1.
 RMSDP=3.07D-02 MaxDP=6.82D-01              OVMax= 0.00D+00

 Cycle   2  Pass 1  IDiag  1:
 E=  1.59422619368149     Delta-E=       -0.077796514378 Rises=F Damp=F
 DIIS: error= 6.69D-02 at cycle   2 NSaved=   2.
 NSaved= 2 IEnMin= 2 EnMin=  1.59422619368149     IErMin= 1 ErrMin= 4.91D-02
 ErrMax= 6.69D-02  0.00D+00 EMaxC= 1.00D-01 BMatC= 3.33D-01 BMatP= 2.95D-01
 IDIUse=2 WtCom= 0.00D+00 WtEn= 1.00D+00
 Coeff-En:   0.468D+00 0.532D+00
 Coeff:      0.468D+00 0.532D+00
 RMSDP=3.25D-02 MaxDP=6.75D-01 DE=-7.78D-02 OVMax= 0.00D+00

 Cycle   3  Pass 1  IDiag  1:
 E=  1.61826473543249     Delta-E=        0.024038541751 Rises=F Damp=F
 DIIS: error= 3.91D-02 at cycle   3 NSaved=   3.
 NSaved= 3 IEnMin= 2 EnMin=  1.59422619368149     IErMin= 3 ErrMin= 3.91D-02
 ErrMax= 3.91D-02  0.00D+00 EMaxC= 1.00D-01 BMatC= 2.22D-01 BMatP= 2.95D-01
 IDIUse=3 WtCom= 6.09D-01 WtEn= 3.91D-01
 Coeff-Com:  0.210D+00 0.353D+00 0.437D+00
 Coeff-En:   0.000D+00 0.504D+00 0.496D+00
 Coeff:      0.128D+00 0.412D+00 0.460D+00
 RMSDP=2.59D-02 MaxDP=4.72D-01 DE= 2.40D-02 OVMax= 0.00D+00

 Cycle   4  Pass 1  IDiag  1:
 E= 0.368277018657977     Delta-E=       -1.249987716775 Rises=F Damp=F
 DIIS: error= 2.49D-02 at cycle   4 NSaved=   4.
 NSaved= 4 IEnMin= 4 EnMin= 0.368277018657977     IErMin= 4 ErrMin= 2.49D-02
 ErrMax= 2.49D-02  0.00D+00 EMaxC= 1.00D-01 BMatC= 5.54D-02 BMatP= 2.22D-01
 IDIUse=3 WtCom= 7.51D-01 WtEn= 2.49D-01
 Coeff-Com: -0.117D+00 0.129D+00 0.290D+00 0.698D+00
 Coeff-En:   0.000D+00 0.000D+00 0.494D-01 0.951D+00
 Coeff:     -0.881D-01 0.970D-01 0.230D+00 0.761D+00
 RMSDP=8.96D-03 MaxDP=1.13D-01 DE=-1.25D+00 OVMax= 0.00D+00

 Cycle   5  Pass 1  IDiag  1:
 E= 0.157871345554554     Delta-E=       -0.210405673103 Rises=F Damp=F
 DIIS: error= 5.87D-03 at cycle   5 NSaved=   5.
 NSaved= 5 IEnMin= 5 EnMin= 0.157871345554554     IErMin= 5 ErrMin= 5.87D-03
 ErrMax= 5.87D-03  0.00D+00 EMaxC= 1.00D-01 BMatC= 5.69D-03 BMatP= 5.54D-02
 IDIUse=3 WtCom= 9.41D-01 WtEn= 5.87D-02
 Coeff-Com: -0.228D-01-0.536D-01 0.561D-01-0.885D-01 0.111D+01
 Coeff-En:   0.000D+00 0.000D+00 0.000D+00 0.000D+00 0.100D+01
 Coeff:     -0.215D-01-0.504D-01 0.528D-01-0.833D-01 0.110D+01
 RMSDP=4.86D-03 MaxDP=7.06D-02 DE=-2.10D-01 OVMax= 0.00D+00

 Cycle   6  Pass 1  IDiag  3:
 E= 0.119916966693268     Delta-E=       -0.037954378861 Rises=F Damp=F
 DIIS: error= 2.10D-03 at cycle   6 NSaved=   6.
 NSaved= 6 IEnMin= 6 EnMin= 0.119916966693268     IErMin= 6 ErrMin= 2.10D-03
 ErrMax= 2.10D-03  0.00D+00 EMaxC= 1.00D-01 BMatC= 8.65D-04 BMatP= 5.69D-03
 IDIUse=3 WtCom= 9.79D-01 WtEn= 2.10D-02
 Coeff-Com: -0.211D-02-0.180D-01 0.776D-02 0.194D-01-0.240D-01 0.102D+01
 Coeff-En:   0.000D+00 0.000D+00 0.000D+00 0.000D+00 0.000D+00 0.100D+01
 Coeff:     -0.207D-02-0.176D-01 0.759D-02 0.190D-01-0.234D-01 0.102D+01
 Gap=     0.086 Goal=   None    Shift=    0.000
 RMSDP=1.99D-03 MaxDP=2.43D-02 DE=-3.80D-02 OVMax= 7.09D-02

 Cycle   7  Pass 1  IDiag  3:
 E= 0.112556126299182     Delta-E=       -0.007360840394 Rises=F Damp=F
 DIIS: error= 1.04D-03 at cycle   7 NSaved=   7.
 NSaved= 7 IEnMin= 7 EnMin= 0.112556126299182     IErMin= 7 ErrMin= 1.04D-03
 ErrMax= 1.04D-03  0.00D+00 EMaxC= 1.00D-01 BMatC= 2.94D-04 BMatP= 8.65D-04
 IDIUse=3 WtCom= 9.90D-01 WtEn= 1.04D-02
 Coeff-Com:  0.134D-02-0.299D-02-0.974D-02 0.205D-01-0.677D-02-0.318D+00
 Coeff-Com:  0.132D+01
 Coeff-En:   0.000D+00 0.000D+00 0.000D+00 0.000D+00 0.000D+00 0.000D+00
 Coeff-En:   0.100D+01
 Coeff:      0.133D-02-0.296D-02-0.964D-02 0.203D-01-0.670D-02-0.315D+00
 Coeff:      0.131D+01
 Gap=     0.089 Goal=   None    Shift=    0.000
 RMSDP=2.06D-03 MaxDP=2.87D-02 DE=-7.36D-03 OVMax= 8.14D-02

 Cycle   8  Pass 1  IDiag  3:
 E= 0.109123721774381     Delta-E=       -0.003432404525 Rises=F Damp=F
 DIIS: error= 1.81D-03 at cycle   8 NSaved=   8.
 NSaved= 8 IEnMin= 8 EnMin= 0.109123721774381     IErMin= 7 ErrMin= 1.04D-03
 ErrMax= 1.81D-03  0.00D+00 EMaxC= 1.00D-01 BMatC= 3.68D-04 BMatP= 2.94D-04
 IDIUse=3 WtCom= 9.90D-01 WtEn= 1.04D-02
 Coeff-Com: -0.517D-02-0.105D-04-0.995D-02 0.135D-01 0.151D+00-0.273D+00
 Coeff-Com:  0.223D+00 0.901D+00
 Coeff-En:   0.000D+00 0.000D+00 0.000D+00 0.000D+00 0.000D+00 0.000D+00
 Coeff-En:   0.000D+00 0.100D+01
 Coeff:     -0.512D-02-0.104D-04-0.984D-02 0.134D-01 0.150D+00-0.271D+00
 Coeff:      0.221D+00 0.902D+00
 Gap=     0.089 Goal=   None    Shift=    0.000
 RMSDP=8.27D-04 MaxDP=7.87D-03 DE=-3.43D-03 OVMax= 2.40D-02

 Cycle   9  Pass 1  IDiag  3:
 E= 0.107274275964642     Delta-E=       -0.001849445810 Rises=F Damp=F
 DIIS: error= 1.39D-03 at cycle   9 NSaved=   9.
 NSaved= 9 IEnMin= 9 EnMin= 0.107274275964642     IErMin= 7 ErrMin= 1.04D-03
 ErrMax= 1.39D-03  0.00D+00 EMaxC= 1.00D-01 BMatC= 2.13D-04 BMatP= 2.94D-04
 IDIUse=3 WtCom= 9.90D-01 WtEn= 1.04D-02
 Coeff-Com:  0.387D-02 0.101D-02-0.207D-02-0.658D-02-0.669D-01 0.164D+00
 Coeff-Com:  0.166D-02-0.282D+01 0.373D+01
 Coeff-En:   0.000D+00 0.000D+00 0.000D+00 0.000D+00 0.000D+00 0.000D+00
 Coeff-En:   0.000D+00 0.000D+00 0.100D+01
 Coeff:      0.383D-02 0.100D-02-0.205D-02-0.651D-02-0.662D-01 0.163D+00
 Coeff:      0.164D-02-0.279D+01 0.370D+01
 Gap=     0.092 Goal=   None    Shift=    0.000
 RMSDP=2.53D-03 MaxDP=2.27D-02 DE=-1.85D-03 OVMax= 7.89D-02

 Cycle  10  Pass 1  IDiag  3:
 E= 0.103540410390451     Delta-E=       -0.003733865574 Rises=F Damp=F
 DIIS: error= 7.33D-04 at cycle  10 NSaved=  10.
 NSaved=10 IEnMin=10 EnMin= 0.103540410390451     IErMin=10 ErrMin= 7.33D-04
 ErrMax= 7.33D-04  0.00D+00 EMaxC= 1.00D-01 BMatC= 6.06D-05 BMatP= 2.13D-04
 IDIUse=3 WtCom= 9.93D-01 WtEn= 7.33D-03
 Coeff-Com:  0.579D-03-0.734D-03 0.345D-03 0.202D-02-0.184D-01 0.169D-01
 Coeff-Com:  0.179D+00 0.675D-01-0.601D+00 0.135D+01
 Coeff-En:   0.000D+00 0.000D+00 0.000D+00 0.000D+00 0.000D+00 0.000D+00
 Coeff-En:   0.000D+00 0.000D+00 0.000D+00 0.100D+01
 Coeff:      0.575D-03-0.729D-03 0.342D-03 0.201D-02-0.183D-01 0.168D-01
 Coeff:      0.178D+00 0.670D-01-0.596D+00 0.135D+01
 Gap=     0.090 Goal=   None    Shift=    0.000
 RMSDP=1.01D-03 MaxDP=1.06D-02 DE=-3.73D-03 OVMax= 3.27D-02

 Cycle  11  Pass 1  IDiag  3:
 E= 0.102324567941537     Delta-E=       -0.001215842449 Rises=F Damp=F
 DIIS: error= 5.93D-04 at cycle  11 NSaved=  11.
 NSaved=11 IEnMin=11 EnMin= 0.102324567941537     IErMin=11 ErrMin= 5.93D-04
 ErrMax= 5.93D-04  0.00D+00 EMaxC= 1.00D-01 BMatC= 4.05D-05 BMatP= 6.06D-05
 IDIUse=3 WtCom= 9.94D-01 WtEn= 5.93D-03
 Coeff-Com: -0.186D-02 0.297D-03 0.174D-02 0.313D-02 0.271D-01-0.662D-01
 Coeff-Com: -0.200D+00 0.804D+00-0.566D+00-0.644D+00 0.164D+01
 Coeff-En:   0.000D+00 0.000D+00 0.000D+00 0.000D+00 0.000D+00 0.000D+00
 Coeff-En:   0.000D+00 0.000D+00 0.000D+00 0.000D+00 0.100D+01
 Coeff:     -0.185D-02 0.295D-03 0.173D-02 0.311D-02 0.270D-01-0.658D-01
 Coeff:     -0.199D+00 0.799D+00-0.563D+00-0.640D+00 0.164D+01
 Gap=     0.089 Goal=   None    Shift=    0.000
 RMSDP=1.02D-03 MaxDP=9.05D-03 DE=-1.22D-03 OVMax= 2.67D-02

 Cycle  12  Pass 1  IDiag  3:
 E= 0.101234711321581     Delta-E=       -0.001089856620 Rises=F Damp=F
 DIIS: error= 4.53D-04 at cycle  12 NSaved=  12.
 NSaved=12 IEnMin=12 EnMin= 0.101234711321581     IErMin=12 ErrMin= 4.53D-04
 ErrMax= 4.53D-04  0.00D+00 EMaxC= 1.00D-01 BMatC= 2.92D-05 BMatP= 4.05D-05
 IDIUse=3 WtCom= 9.95D-01 WtEn= 4.53D-03
 Coeff-Com: -0.107D-03 0.793D-03 0.915D-03 0.139D-02 0.724D-02 0.163D-01
 Coeff-Com: -0.922D-02-0.324D+00 0.354D+00-0.259D+00-0.106D+01 0.228D+01
 Coeff-En:   0.000D+00 0.000D+00 0.000D+00 0.000D+00 0.000D+00 0.000D+00
 Coeff-En:   0.000D+00 0.000D+00 0.000D+00 0.000D+00 0.000D+00 0.100D+01
 Coeff:     -0.106D-03 0.789D-03 0.910D-03 0.139D-02 0.721D-02 0.162D-01
 Coeff:     -0.918D-02-0.323D+00 0.352D+00-0.258D+00-0.106D+01 0.227D+01
 Gap=     0.088 Goal=   None    Shift=    0.000
 RMSDP=1.90D-03 MaxDP=1.78D-02 DE=-1.09D-03 OVMax= 5.21D-02

 Cycle  13  Pass 1  IDiag  3:
 E= 0.995603429938683E-01 Delta-E=       -0.001674368328 Rises=F Damp=F
 DIIS: error= 5.82D-04 at cycle  13 NSaved=  13.
 NSaved=13 IEnMin=13 EnMin= 0.995603429938683E-01 IErMin=12 ErrMin= 4.53D-04
 ErrMax= 5.82D-04  0.00D+00 EMaxC= 1.00D-01 BMatC= 3.01D-05 BMatP= 2.92D-05
 IDIUse=3 WtCom= 9.95D-01 WtEn= 4.53D-03
 Coeff-Com: -0.446D-05 0.500D-03-0.507D-04 0.139D-02 0.549D-02-0.310D-01
 Coeff-Com:  0.802D-01-0.332D+00 0.409D+00-0.474D+00-0.161D-01 0.428D+00
 Coeff-Com:  0.929D+00
 Coeff-En:   0.000D+00 0.000D+00 0.000D+00 0.000D+00 0.000D+00 0.000D+00
 Coeff-En:   0.000D+00 0.000D+00 0.000D+00 0.000D+00 0.000D+00 0.000D+00
 Coeff-En:   0.100D+01
 Coeff:     -0.444D-05 0.498D-03-0.505D-04 0.139D-02 0.547D-02-0.309D-01
 Coeff:      0.798D-01-0.331D+00 0.408D+00-0.472D+00-0.160D-01 0.426D+00
 Coeff:      0.930D+00
 Gap=     0.089 Goal=   None    Shift=    0.000
 RMSDP=7.92D-04 MaxDP=9.69D-03 DE=-1.67D-03 OVMax= 2.35D-02

 Cycle  14  Pass 1  IDiag  3:
 E= 0.988663774445513E-01 Delta-E=       -0.000693965549 Rises=F Damp=F
 DIIS: error= 3.74D-04 at cycle  14 NSaved=  14.
 NSaved=14 IEnMin=14 EnMin= 0.988663774445513E-01 IErMin=14 ErrMin= 3.74D-04
 ErrMax= 3.74D-04  0.00D+00 EMaxC= 1.00D-01 BMatC= 1.85D-05 BMatP= 2.92D-05
 IDIUse=3 WtCom= 9.96D-01 WtEn= 3.74D-03
 Coeff-Com: -0.806D-03 0.217D-03-0.122D-02 0.162D-02 0.153D-01-0.495D-01
 Coeff-Com:  0.538D-01 0.149D+00-0.175D+00 0.302D+00-0.522D+00-0.118D+00
 Coeff-Com: -0.105D+01 0.240D+01
 Coeff-En:   0.000D+00 0.000D+00 0.000D+00 0.000D+00 0.000D+00 0.000D+00
 Coeff-En:   0.000D+00 0.000D+00 0.000D+00 0.000D+00 0.000D+00 0.000D+00
 Coeff-En:   0.000D+00 0.100D+01
 Coeff:     -0.803D-03 0.217D-03-0.122D-02 0.161D-02 0.152D-01-0.493D-01
 Coeff:      0.536D-01 0.148D+00-0.174D+00 0.301D+00-0.520D+00-0.117D+00
 Coeff:     -0.105D+01 0.239D+01
 Gap=     0.089 Goal=   None    Shift=    0.000
 RMSDP=1.92D-03 MaxDP=1.93D-02 DE=-6.94D-04 OVMax= 6.15D-02

 Cycle  15  Pass 1  IDiag  3:
 E= 0.976435183066542E-01 Delta-E=       -0.001222859138 Rises=F Damp=F
 DIIS: error= 8.89D-04 at cycle  15 NSaved=  15.
 NSaved=15 IEnMin=15 EnMin= 0.976435183066542E-01 IErMin=14 ErrMin= 3.74D-04
 ErrMax= 8.89D-04  0.00D+00 EMaxC= 1.00D-01 BMatC= 4.36D-05 BMatP= 1.85D-05
 IDIUse=3 WtCom= 9.96D-01 WtEn= 3.74D-03
 Coeff-Com: -0.758D-03 0.817D-04-0.649D-03 0.301D-02 0.104D-01-0.420D-01
 Coeff-Com:  0.321D-01 0.114D+00-0.139D+00 0.841D-01-0.897D-01 0.298D-01
 Coeff-Com: -0.137D+01 0.186D+01 0.511D+00
 Coeff-En:   0.000D+00 0.000D+00 0.000D+00 0.000D+00 0.000D+00 0.000D+00
 Coeff-En:   0.000D+00 0.000D+00 0.000D+00 0.000D+00 0.000D+00 0.000D+00
 Coeff-En:   0.000D+00 0.000D+00 0.100D+01
 Coeff:     -0.755D-03 0.814D-04-0.646D-03 0.300D-02 0.103D-01-0.419D-01
 Coeff:      0.320D-01 0.113D+00-0.139D+00 0.838D-01-0.894D-01 0.297D-01
 Coeff:     -0.137D+01 0.185D+01 0.513D+00
 Gap=     0.091 Goal=   None    Shift=    0.000
 RMSDP=4.73D-04 MaxDP=6.31D-03 DE=-1.22D-03 OVMax= 1.14D-02

 Cycle  16  Pass 1  IDiag  3:
 E= 0.972565426806113E-01 Delta-E=       -0.000386975626 Rises=F Damp=F
 DIIS: error= 2.98D-04 at cycle  16 NSaved=  16.
 NSaved=16 IEnMin=16 EnMin= 0.972565426806113E-01 IErMin=16 ErrMin= 2.98D-04
 ErrMax= 2.98D-04  0.00D+00 EMaxC= 1.00D-01 BMatC= 1.17D-05 BMatP= 1.85D-05
 IDIUse=3 WtCom= 9.97D-01 WtEn= 2.98D-03
 Coeff-Com: -0.580D-03-0.380D-04 0.501D-04 0.248D-02 0.140D-01-0.242D-01
 Coeff-Com:  0.166D-02 0.167D+00-0.233D+00-0.566D-01-0.118D+00 0.829D+00
 Coeff-Com:  0.756D+00-0.285D+01-0.472D+00 0.298D+01
 Coeff-En:   0.000D+00 0.000D+00 0.000D+00 0.000D+00 0.000D+00 0.000D+00
 Coeff-En:   0.000D+00 0.000D+00 0.000D+00 0.000D+00 0.000D+00 0.000D+00
 Coeff-En:   0.000D+00 0.000D+00 0.000D+00 0.100D+01
 Coeff:     -0.579D-03-0.379D-04 0.499D-04 0.248D-02 0.140D-01-0.241D-01
 Coeff:      0.166D-02 0.167D+00-0.233D+00-0.564D-01-0.117D+00 0.827D+00
 Coeff:      0.753D+00-0.284D+01-0.470D+00 0.298D+01
 Gap=     0.092 Goal=   None    Shift=    0.000
 RMSDP=2.18D-03 MaxDP=2.39D-02 DE=-3.87D-04 OVMax= 7.23D-02

 Cycle  17  Pass 1  IDiag  3:
 E= 0.964044051621613E-01 Delta-E=       -0.000852137518 Rises=F Damp=F
 DIIS: error= 1.01D-03 at cycle  17 NSaved=  17.
 NSaved=17 IEnMin=17 EnMin= 0.964044051621613E-01 IErMin=16 ErrMin= 2.98D-04
 ErrMax= 1.01D-03  0.00D+00 EMaxC= 1.00D-01 BMatC= 5.45D-05 BMatP= 1.17D-05
 IDIUse=3 WtCom= 9.97D-01 WtEn= 2.98D-03
 Coeff-Com: -0.718D-03-0.172D-03 0.344D-04 0.241D-02 0.162D-01-0.293D-01
 Coeff-Com: -0.949D-03 0.231D+00-0.282D+00-0.818D-01-0.396D-01 0.626D+00
 Coeff-Com:  0.505D+00-0.188D+01-0.933D+00 0.241D+01 0.451D+00
 Coeff-En:   0.000D+00 0.000D+00 0.000D+00 0.000D+00 0.000D+00 0.000D+00
 Coeff-En:   0.000D+00 0.000D+00 0.000D+00 0.000D+00 0.000D+00 0.000D+00
 Coeff-En:   0.000D+00 0.000D+00 0.000D+00 0.000D+00 0.100D+01
 Coeff:     -0.716D-03-0.171D-03 0.343D-04 0.240D-02 0.162D-01-0.293D-01
 Coeff:     -0.946D-03 0.230D+00-0.281D+00-0.815D-01-0.395D-01 0.624D+00
 Coeff:      0.504D+00-0.187D+01-0.930D+00 0.241D+01 0.453D+00
 Gap=     0.094 Goal=   None    Shift=    0.000
 RMSDP=4.59D-04 MaxDP=7.59D-03 DE=-8.52D-04 OVMax= 1.49D-02

 Cycle  18  Pass 1  IDiag  3:
 E= 0.960920906143201E-01 Delta-E=       -0.000312314548 Rises=F Damp=F
 DIIS: error= 2.47D-04 at cycle  18 NSaved=  18.
 NSaved=18 IEnMin=18 EnMin= 0.960920906143201E-01 IErMin=18 ErrMin= 2.47D-04
 ErrMax= 2.47D-04  0.00D+00 EMaxC= 1.00D-01 BMatC= 6.73D-06 BMatP= 1.17D-05
 IDIUse=3 WtCom= 9.98D-01 WtEn= 2.47D-03
 Coeff-Com: -0.698D-03-0.474D-04-0.208D-03 0.437D-03 0.127D-01-0.142D-01
 Coeff-Com: -0.137D-01 0.253D+00-0.321D+00 0.119D+00-0.503D-01-0.229D+00
 Coeff-Com: -0.454D+00 0.167D+01 0.155D+00-0.225D+01-0.334D+00 0.246D+01
 Coeff-En:   0.000D+00 0.000D+00 0.000D+00 0.000D+00 0.000D+00 0.000D+00
 Coeff-En:   0.000D+00 0.000D+00 0.000D+00 0.000D+00 0.000D+00 0.000D+00
 Coeff-En:   0.000D+00 0.000D+00 0.000D+00 0.000D+00 0.000D+00 0.100D+01
 Coeff:     -0.696D-03-0.473D-04-0.207D-03 0.435D-03 0.127D-01-0.142D-01
 Coeff:     -0.137D-01 0.253D+00-0.320D+00 0.119D+00-0.502D-01-0.228D+00
 Coeff:     -0.452D+00 0.166D+01 0.155D+00-0.224D+01-0.333D+00 0.245D+01
 Gap=     0.097 Goal=   None    Shift=    0.000
 RMSDP=1.54D-03 MaxDP=1.67D-02 DE=-3.12D-04 OVMax= 4.70D-02

 Cycle  19  Pass 1  IDiag  3:
 E= 0.957988314502245E-01 Delta-E=       -0.000293259164 Rises=F Damp=F
 DIIS: error= 6.94D-04 at cycle  19 NSaved=  19.
 NSaved=19 IEnMin=19 EnMin= 0.957988314502245E-01 IErMin=18 ErrMin= 2.47D-04
 ErrMax= 6.94D-04  0.00D+00 EMaxC= 1.00D-01 BMatC= 3.08D-05 BMatP= 6.73D-06
 IDIUse=3 WtCom= 9.98D-01 WtEn= 2.47D-03
 Coeff-Com: -0.553D-03 0.137D-04-0.459D-03-0.879D-04 0.129D-01-0.184D-01
 Coeff-Com: -0.790D-02 0.230D+00-0.277D+00 0.672D-01-0.254D-01-0.891D-01
 Coeff-Com: -0.349D+00 0.113D+01 0.674D-01-0.141D+01-0.598D+00 0.176D+01
 Coeff-Com:  0.504D+00
 Coeff-En:   0.000D+00 0.000D+00 0.000D+00 0.000D+00 0.000D+00 0.000D+00
 Coeff-En:   0.000D+00 0.000D+00 0.000D+00 0.000D+00 0.000D+00 0.000D+00
 Coeff-En:   0.000D+00 0.000D+00 0.000D+00 0.000D+00 0.000D+00 0.000D+00
 Coeff-En:   0.100D+01
 Coeff:     -0.552D-03 0.137D-04-0.458D-03-0.877D-04 0.129D-01-0.184D-01
 Coeff:     -0.788D-02 0.230D+00-0.277D+00 0.671D-01-0.253D-01-0.889D-01
 Coeff:     -0.348D+00 0.113D+01 0.672D-01-0.141D+01-0.596D+00 0.176D+01
 Coeff:      0.505D+00
 Gap=     0.097 Goal=   None    Shift=    0.000
 RMSDP=3.04D-04 MaxDP=4.37D-03 DE=-2.93D-04 OVMax= 1.14D-02

 Cycle  20  Pass 1  IDiag  3:
 E= 0.956637289888249E-01 Delta-E=       -0.000135102461 Rises=F Damp=F
 DIIS: error= 2.89D-04 at cycle  20 NSaved=  20.
 NSaved=20 IEnMin=20 EnMin= 0.956637289888249E-01 IErMin=18 ErrMin= 2.47D-04
 ErrMax= 2.89D-04  0.00D+00 EMaxC= 1.00D-01 BMatC= 5.09D-06 BMatP= 6.73D-06
 IDIUse=3 WtCom= 9.98D-01 WtEn= 2.47D-03
 Coeff-Com: -0.425D-03 0.201D-03-0.675D-03-0.583D-03 0.133D-01-0.175D-01
 Coeff-Com: -0.270D-01 0.252D+00-0.256D+00-0.653D-01 0.254D+00-0.154D+00
 Coeff-Com:  0.755D-01-0.219D+00-0.227D+00 0.610D+00 0.391D-01-0.775D+00
 Coeff-Com: -0.219D+00 0.172D+01
 Coeff-En:   0.000D+00 0.000D+00 0.000D+00 0.000D+00 0.000D+00 0.000D+00
 Coeff-En:   0.000D+00 0.000D+00 0.000D+00 0.000D+00 0.000D+00 0.000D+00
 Coeff-En:   0.000D+00 0.000D+00 0.000D+00 0.000D+00 0.000D+00 0.000D+00
 Coeff-En:   0.000D+00 0.100D+01
 Coeff:     -0.423D-03 0.201D-03-0.673D-03-0.581D-03 0.133D-01-0.175D-01
 Coeff:     -0.270D-01 0.252D+00-0.256D+00-0.651D-01 0.253D+00-0.154D+00
 Coeff:      0.753D-01-0.218D+00-0.226D+00 0.608D+00 0.390D-01-0.773D+00
 Coeff:     -0.219D+00 0.172D+01
 Gap=     0.098 Goal=   None    Shift=    0.000
 RMSDP=5.63D-04 MaxDP=4.97D-03 DE=-1.35D-04 OVMax= 1.63D-02

 Cycle  21  Pass 1  IDiag  3:
 E= 0.955928301642643E-01 Delta-E=       -0.000070898825 Rises=F Damp=F
 DIIS: error= 3.67D-04 at cycle  21 NSaved=  20.
 NSaved=20 IEnMin=20 EnMin= 0.955928301642643E-01 IErMin=17 ErrMin= 2.47D-04
 ErrMax= 3.67D-04  0.00D+00 EMaxC= 1.00D-01 BMatC= 9.11D-06 BMatP= 5.09D-06
 IDIUse=3 WtCom= 9.98D-01 WtEn= 2.47D-03
 Coeff-Com:  0.573D-04-0.583D-03 0.194D-03 0.539D-02-0.108D-01-0.418D-02
 Coeff-Com:  0.867D-01-0.913D-01-0.138D-01 0.757D-01-0.102D+00 0.462D-01
 Coeff-Com:  0.779D-01-0.136D+00 0.121D-02-0.158D+00 0.394D+00-0.490D+00
 Coeff-Com: -0.244D+00 0.156D+01
 Coeff-En:   0.000D+00 0.000D+00 0.000D+00 0.000D+00 0.000D+00 0.000D+00
 Coeff-En:   0.000D+00 0.000D+00 0.000D+00 0.000D+00 0.000D+00 0.000D+00
 Coeff-En:   0.000D+00 0.000D+00 0.000D+00 0.000D+00 0.000D+00 0.000D+00
 Coeff-En:   0.000D+00 0.100D+01
 Coeff:      0.572D-04-0.582D-03 0.194D-03 0.537D-02-0.108D-01-0.417D-02
 Coeff:      0.865D-01-0.911D-01-0.138D-01 0.755D-01-0.102D+00 0.461D-01
 Coeff:      0.777D-01-0.136D+00 0.121D-02-0.158D+00 0.393D+00-0.489D+00
 Coeff:     -0.244D+00 0.156D+01
 Gap=     0.098 Goal=   None    Shift=    0.000
 RMSDP=2.81D-04 MaxDP=3.00D-03 DE=-7.09D-05 OVMax= 9.71D-03

 Cycle  22  Pass 1  IDiag  3:
 E= 0.955376610153280E-01 Delta-E=       -0.000055169149 Rises=F Damp=F
 DIIS: error= 2.21D-04 at cycle  22 NSaved=  20.
 NSaved=20 IEnMin=20 EnMin= 0.955376610153280E-01 IErMin=20 ErrMin= 2.21D-04
 ErrMax= 2.21D-04  0.00D+00 EMaxC= 1.00D-01 BMatC= 3.57D-06 BMatP= 5.09D-06
 IDIUse=3 WtCom= 9.98D-01 WtEn= 2.21D-03
 Coeff-Com: -0.101D-03 0.212D-03 0.181D-02-0.250D-02 0.481D-02 0.513D-02
 Coeff-Com: -0.188D-01 0.160D-01-0.654D-01 0.108D+00-0.842D-01 0.137D+00
 Coeff-Com: -0.121D-01-0.244D+00-0.808D-01 0.439D+00 0.496D-01-0.561D+00
 Coeff-Com: -0.959D+00 0.227D+01
 Coeff-En:   0.000D+00 0.000D+00 0.000D+00 0.000D+00 0.000D+00 0.000D+00
 Coeff-En:   0.000D+00 0.000D+00 0.000D+00 0.000D+00 0.000D+00 0.000D+00
 Coeff-En:   0.000D+00 0.000D+00 0.000D+00 0.000D+00 0.000D+00 0.000D+00
 Coeff-En:   0.000D+00 0.100D+01
 Coeff:     -0.100D-03 0.211D-03 0.181D-02-0.249D-02 0.480D-02 0.511D-02
 Coeff:     -0.188D-01 0.160D-01-0.652D-01 0.108D+00-0.840D-01 0.136D+00
 Coeff:     -0.121D-01-0.243D+00-0.806D-01 0.438D+00 0.495D-01-0.560D+00
 Coeff:     -0.957D+00 0.226D+01
 Gap=     0.099 Goal=   None    Shift=    0.000
 RMSDP=3.64D-04 MaxDP=3.90D-03 DE=-5.52D-05 OVMax= 1.19D-02

 Cycle  23  Pass 1  IDiag  3:
 E= 0.955022188270505E-01 Delta-E=       -0.000035442188 Rises=F Damp=F
 DIIS: error= 1.75D-04 at cycle  23 NSaved=  20.
 NSaved=20 IEnMin=20 EnMin= 0.955022188270505E-01 IErMin=20 ErrMin= 1.75D-04
 ErrMax= 1.75D-04  0.00D+00 EMaxC= 1.00D-01 BMatC= 2.34D-06 BMatP= 3.57D-06
 IDIUse=3 WtCom= 9.98D-01 WtEn= 1.75D-03
 Coeff-Com:  0.686D-04 0.238D-02-0.427D-02-0.100D-01 0.236D-01-0.263D-02
 Coeff-Com: -0.224D-01 0.335D-01-0.430D-01 0.318D-01-0.229D-01-0.596D-01
 Coeff-Com:  0.716D-01-0.588D-01 0.635D-01-0.467D-01 0.188D+00-0.594D+00
 Coeff-Com:  0.176D+00 0.127D+01
 Coeff-En:   0.000D+00 0.000D+00 0.000D+00 0.000D+00 0.000D+00 0.000D+00
 Coeff-En:   0.000D+00 0.000D+00 0.000D+00 0.000D+00 0.000D+00 0.000D+00
 Coeff-En:   0.000D+00 0.000D+00 0.000D+00 0.000D+00 0.000D+00 0.000D+00
 Coeff-En:   0.000D+00 0.100D+01
 Coeff:      0.684D-04 0.238D-02-0.426D-02-0.100D-01 0.236D-01-0.262D-02
 Coeff:     -0.223D-01 0.334D-01-0.429D-01 0.317D-01-0.229D-01-0.595D-01
 Coeff:      0.715D-01-0.587D-01 0.634D-01-0.467D-01 0.188D+00-0.593D+00
 Coeff:      0.176D+00 0.127D+01
 Gap=     0.099 Goal=   None    Shift=    0.000
 RMSDP=2.04D-04 MaxDP=2.27D-03 DE=-3.54D-05 OVMax= 6.47D-03

 Cycle  24  Pass 1  IDiag  3:
 E= 0.954841748766739E-01 Delta-E=       -0.000018043950 Rises=F Damp=F
 DIIS: error= 7.46D-05 at cycle  24 NSaved=  20.
 NSaved=20 IEnMin=20 EnMin= 0.954841748766739E-01 IErMin=20 ErrMin= 7.46D-05
 ErrMax= 7.46D-05  0.00D+00 EMaxC= 1.00D-01 BMatC= 5.83D-07 BMatP= 2.34D-06
 IDIUse=1 WtCom= 1.00D+00 WtEn= 0.00D+00
 Coeff-Com:  0.866D-03-0.208D-02 0.890D-02 0.142D-01-0.318D-01 0.317D-01
 Coeff-Com: -0.874D-01 0.121D+00-0.179D-01-0.322D-01-0.228D-01 0.208D-01
 Coeff-Com:  0.521D-01-0.842D-01-0.118D+00 0.255D+00 0.137D+00-0.587D+00
 Coeff-Com: -0.297D+00 0.164D+01
 Coeff:      0.866D-03-0.208D-02 0.890D-02 0.142D-01-0.318D-01 0.317D-01
 Coeff:     -0.874D-01 0.121D+00-0.179D-01-0.322D-01-0.228D-01 0.208D-01
 Coeff:      0.521D-01-0.842D-01-0.118D+00 0.255D+00 0.137D+00-0.587D+00
 Coeff:     -0.297D+00 0.164D+01
 Gap=     0.099 Goal=   None    Shift=    0.000
 RMSDP=1.28D-04 MaxDP=1.45D-03 DE=-1.80D-05 OVMax= 3.37D-03

 Cycle  25  Pass 1  IDiag  3:
 E= 0.954785317053393E-01 Delta-E=       -0.000005643171 Rises=F Damp=F
 DIIS: error= 8.31D-05 at cycle  25 NSaved=  20.
 NSaved=20 IEnMin=20 EnMin= 0.954785317053393E-01 IErMin=19 ErrMin= 7.46D-05
 ErrMax= 8.31D-05  0.00D+00 EMaxC= 1.00D-01 BMatC= 5.27D-07 BMatP= 5.83D-07
 IDIUse=1 WtCom= 1.00D+00 WtEn= 0.00D+00
 Coeff-Com:  0.182D-02-0.752D-02-0.752D-02 0.177D-01 0.516D-02-0.213D-02
 Coeff-Com: -0.253D-01 0.241D-01-0.297D-01-0.354D-01 0.848D-01-0.346D-01
 Coeff-Com:  0.613D-02 0.332D-01-0.350D-01-0.141D-01 0.300D-01-0.636D+00
 Coeff-Com:  0.365D+00 0.126D+01
 Coeff:      0.182D-02-0.752D-02-0.752D-02 0.177D-01 0.516D-02-0.213D-02
 Coeff:     -0.253D-01 0.241D-01-0.297D-01-0.354D-01 0.848D-01-0.346D-01
 Coeff:      0.613D-02 0.332D-01-0.350D-01-0.141D-01 0.300D-01-0.636D+00
 Coeff:      0.365D+00 0.126D+01
 Gap=     0.100 Goal=   None    Shift=    0.000
 RMSDP=1.56D-04 MaxDP=1.66D-03 DE=-5.64D-06 OVMax= 4.39D-03

 Cycle  26  Pass 1  IDiag  3:
 E= 0.954738228430188E-01 Delta-E=       -0.000004708862 Rises=F Damp=F
 DIIS: error= 4.86D-05 at cycle  26 NSaved=  20.
 NSaved=20 IEnMin=20 EnMin= 0.954738228430188E-01 IErMin=20 ErrMin= 4.86D-05
 ErrMax= 4.86D-05  0.00D+00 EMaxC= 1.00D-01 BMatC= 2.28D-07 BMatP= 5.27D-07
 IDIUse=1 WtCom= 1.00D+00 WtEn= 0.00D+00
 Coeff-Com:  0.185D-03-0.879D-03 0.110D-02 0.720D-02-0.140D-01 0.432D-02
 Coeff-Com:  0.337D-02 0.212D-01-0.143D-01-0.892D-02-0.679D-02 0.197D-01
 Coeff-Com: -0.702D-01 0.106D+00-0.511D-01 0.101D+00-0.684D-01-0.479D+00
 Coeff-Com: -0.365D-01 0.149D+01
 Coeff:      0.185D-03-0.879D-03 0.110D-02 0.720D-02-0.140D-01 0.432D-02
 Coeff:      0.337D-02 0.212D-01-0.143D-01-0.892D-02-0.679D-02 0.197D-01
 Coeff:     -0.702D-01 0.106D+00-0.511D-01 0.101D+00-0.684D-01-0.479D+00
 Coeff:     -0.365D-01 0.149D+01
 Gap=     0.099 Goal=   None    Shift=    0.000
 RMSDP=5.99D-05 MaxDP=7.70D-04 DE=-4.71D-06 OVMax= 1.45D-03

 Cycle  27  Pass 1  IDiag  3:
 E= 0.954723687449359E-01 Delta-E=       -0.000001454098 Rises=F Damp=F
 DIIS: error= 2.68D-05 at cycle  27 NSaved=  20.
 NSaved=20 IEnMin=20 EnMin= 0.954723687449359E-01 IErMin=20 ErrMin= 2.68D-05
 ErrMax= 2.68D-05  0.00D+00 EMaxC= 1.00D-01 BMatC= 6.20D-08 BMatP= 2.28D-07
 IDIUse=1 WtCom= 1.00D+00 WtEn= 0.00D+00
 Coeff-Com: -0.619D-02 0.103D-01-0.545D-04-0.108D-01 0.702D-02 0.133D-02
 Coeff-Com:  0.162D-02-0.796D-02 0.176D-01 0.651D-02-0.612D-01 0.912D-02
 Coeff-Com:  0.521D-01 0.210D-01-0.236D-01-0.311D-01 0.308D+00-0.732D+00
 Coeff-Com: -0.149D+00 0.159D+01
 Coeff:     -0.619D-02 0.103D-01-0.545D-04-0.108D-01 0.702D-02 0.133D-02
 Coeff:      0.162D-02-0.796D-02 0.176D-01 0.651D-02-0.612D-01 0.912D-02
 Coeff:      0.521D-01 0.210D-01-0.236D-01-0.311D-01 0.308D+00-0.732D+00
 Coeff:     -0.149D+00 0.159D+01
 Gap=     0.100 Goal=   None    Shift=    0.000
 RMSDP=5.56D-05 MaxDP=5.41D-04 DE=-1.45D-06 OVMax= 1.58D-03

 Cycle  28  Pass 1  IDiag  3:
 E= 0.954716153911477E-01 Delta-E=       -0.000000753354 Rises=F Damp=F
 DIIS: error= 2.25D-05 at cycle  28 NSaved=  20.
 NSaved=20 IEnMin=20 EnMin= 0.954716153911477E-01 IErMin=20 ErrMin= 2.25D-05
 ErrMax= 2.25D-05  0.00D+00 EMaxC= 1.00D-01 BMatC= 4.44D-08 BMatP= 6.20D-08
 IDIUse=1 WtCom= 1.00D+00 WtEn= 0.00D+00
 Coeff-Com:  0.229D-03 0.487D-02-0.102D-01 0.632D-02-0.545D-02 0.155D-01
 Coeff-Com: -0.599D-02-0.485D-02-0.418D-02 0.309D-02-0.207D-01 0.372D-01
 Coeff-Com: -0.290D-01-0.462D-02-0.317D-01 0.139D+00-0.115D-01-0.173D+00
 Coeff-Com: -0.459D+00 0.155D+01
 Coeff:      0.229D-03 0.487D-02-0.102D-01 0.632D-02-0.545D-02 0.155D-01
 Coeff:     -0.599D-02-0.485D-02-0.418D-02 0.309D-02-0.207D-01 0.372D-01
 Coeff:     -0.290D-01-0.462D-02-0.317D-01 0.139D+00-0.115D-01-0.173D+00
 Coeff:     -0.459D+00 0.155D+01
 Gap=     0.100 Goal=   None    Shift=    0.000
 RMSDP=1.78D-05 MaxDP=2.43D-04 DE=-7.53D-07 OVMax= 3.38D-04

 Cycle  29  Pass 1  IDiag  3:
 E= 0.954713322743146E-01 Delta-E=       -0.000000283117 Rises=F Damp=F
 DIIS: error= 1.26D-05 at cycle  29 NSaved=  20.
 NSaved=20 IEnMin=20 EnMin= 0.954713322743146E-01 IErMin=20 ErrMin= 1.26D-05
 ErrMax= 1.26D-05  0.00D+00 EMaxC= 1.00D-01 BMatC= 1.34D-08 BMatP= 4.44D-08
 IDIUse=1 WtCom= 1.00D+00 WtEn= 0.00D+00
 Coeff-Com:  0.208D-02-0.558D-02 0.358D-02-0.147D-02 0.811D-02 0.144D-02
 Coeff-Com: -0.147D-01-0.398D-02 0.750D-02-0.106D-02 0.917D-02 0.130D-01
 Coeff-Com: -0.129D-01-0.178D-01 0.455D-01-0.101D+00 0.296D+00-0.195D+00
 Coeff-Com: -0.105D+01 0.202D+01
 Coeff:      0.208D-02-0.558D-02 0.358D-02-0.147D-02 0.811D-02 0.144D-02
 Coeff:     -0.147D-01-0.398D-02 0.750D-02-0.106D-02 0.917D-02 0.130D-01
 Coeff:     -0.129D-01-0.178D-01 0.455D-01-0.101D+00 0.296D+00-0.195D+00
 Coeff:     -0.105D+01 0.202D+01
 Gap=     0.100 Goal=   None    Shift=    0.000
 RMSDP=2.40D-05 MaxDP=3.85D-04 DE=-2.83D-07 OVMax= 1.02D-03

 Cycle  30  Pass 1  IDiag  3:
 E= 0.954710398624457E-01 Delta-E=       -0.000000292412 Rises=F Damp=F
 DIIS: error= 7.06D-06 at cycle  30 NSaved=  20.
 NSaved=20 IEnMin=20 EnMin= 0.954710398624457E-01 IErMin=20 ErrMin= 7.06D-06
 ErrMax= 7.06D-06  0.00D+00 EMaxC= 1.00D-01 BMatC= 6.66D-09 BMatP= 1.34D-08
 IDIUse=1 WtCom= 1.00D+00 WtEn= 0.00D+00
 Coeff-Com: -0.143D-02 0.383D-02 0.285D-02-0.752D-02-0.189D-02 0.932D-02
 Coeff-Com: -0.709D-03-0.151D-01-0.161D-02 0.242D-01-0.633D-03-0.192D-01
 Coeff-Com:  0.264D-02 0.354D-01-0.386D-01-0.349D-01 0.264D+00-0.303D+00
 Coeff-Com: -0.564D+00 0.165D+01
 Coeff:     -0.143D-02 0.383D-02 0.285D-02-0.752D-02-0.189D-02 0.932D-02
 Coeff:     -0.709D-03-0.151D-01-0.161D-02 0.242D-01-0.633D-03-0.192D-01
 Coeff:      0.264D-02 0.354D-01-0.386D-01-0.349D-01 0.264D+00-0.303D+00
 Coeff:     -0.564D+00 0.165D+01
 Gap=     0.100 Goal=   None    Shift=    0.000
 RMSDP=1.54D-05 MaxDP=1.84D-04 DE=-2.92D-07 OVMax= 4.28D-04

 Cycle  31  Pass 1  IDiag  3:
 E= 0.954708971891023E-01 Delta-E=       -0.000000142673 Rises=F Damp=F
 DIIS: error= 4.92D-06 at cycle  31 NSaved=  20.
 NSaved=20 IEnMin=20 EnMin= 0.954708971891023E-01 IErMin=20 ErrMin= 4.92D-06
 ErrMax= 4.92D-06  0.00D+00 EMaxC= 1.00D-01 BMatC= 3.04D-09 BMatP= 6.66D-09
 IDIUse=1 WtCom= 1.00D+00 WtEn= 0.00D+00
 Coeff-Com:  0.236D-03-0.816D-03 0.366D-02 0.286D-02-0.904D-02-0.102D-02
 Coeff-Com:  0.748D-02-0.232D-02 0.606D-02-0.719D-03-0.246D-01 0.141D-01
 Coeff-Com:  0.374D-01-0.624D-01 0.290D-01-0.384D-01 0.196D+00-0.197D+00
 Coeff-Com: -0.100D+01 0.204D+01
 Coeff:      0.236D-03-0.816D-03 0.366D-02 0.286D-02-0.904D-02-0.102D-02
 Coeff:      0.748D-02-0.232D-02 0.606D-02-0.719D-03-0.246D-01 0.141D-01
 Coeff:      0.374D-01-0.624D-01 0.290D-01-0.384D-01 0.196D+00-0.197D+00
 Coeff:     -0.100D+01 0.204D+01
 Gap=     0.100 Goal=   None    Shift=    0.000
 RMSDP=1.73D-05 MaxDP=2.36D-04 DE=-1.43D-07 OVMax= 5.57D-04

 Cycle  32  Pass 1  IDiag  3:
 E= 0.954707907366128E-01 Delta-E=       -0.000000106452 Rises=F Damp=F
 DIIS: error= 4.49D-06 at cycle  32 NSaved=  20.
 NSaved=20 IEnMin=20 EnMin= 0.954707907366128E-01 IErMin=20 ErrMin= 4.49D-06
 ErrMax= 4.49D-06  0.00D+00 EMaxC= 1.00D-01 BMatC= 2.24D-09 BMatP= 3.04D-09
 IDIUse=1 WtCom= 1.00D+00 WtEn= 0.00D+00
 Coeff-Com:  0.118D-02-0.404D-03-0.689D-03 0.302D-03 0.361D-03-0.486D-02
 Coeff-Com: -0.323D-02 0.199D-01 0.756D-04-0.272D-01 0.146D-01 0.338D-01
 Coeff-Com: -0.730D-01 0.488D-01 0.315D-02-0.148D+00 0.307D+00-0.225D+00
 Coeff-Com: -0.554D+00 0.161D+01
 Coeff:      0.118D-02-0.404D-03-0.689D-03 0.302D-03 0.361D-03-0.486D-02
 Coeff:     -0.323D-02 0.199D-01 0.756D-04-0.272D-01 0.146D-01 0.338D-01
 Coeff:     -0.730D-01 0.488D-01 0.315D-02-0.148D+00 0.307D+00-0.225D+00
 Coeff:     -0.554D+00 0.161D+01
 Gap=     0.100 Goal=   None    Shift=    0.000
 RMSDP=1.05D-05 MaxDP=1.42D-04 DE=-1.06D-07 OVMax= 3.47D-04

 Cycle  33  Pass 1  IDiag  3:
 E= 0.954707438864943E-01 Delta-E=       -0.000000046850 Rises=F Damp=F
 DIIS: error= 3.12D-06 at cycle  33 NSaved=  20.
 NSaved=20 IEnMin=20 EnMin= 0.954707438864943E-01 IErMin=20 ErrMin= 3.12D-06
 ErrMax= 3.12D-06  0.00D+00 EMaxC= 1.00D-01 BMatC= 1.05D-09 BMatP= 2.24D-09
 IDIUse=1 WtCom= 1.00D+00 WtEn= 0.00D+00
 Coeff-Com:  0.507D-03 0.119D-02-0.215D-02-0.573D-03 0.100D-02-0.185D-02
 Coeff-Com:  0.477D-02-0.104D-03-0.638D-02 0.469D-02 0.642D-02-0.179D-01
 Coeff-Com:  0.294D-02 0.210D-01-0.455D-01 0.455D-01 0.659D-01-0.156D+00
 Coeff-Com: -0.884D+00 0.196D+01
 Coeff:      0.507D-03 0.119D-02-0.215D-02-0.573D-03 0.100D-02-0.185D-02
 Coeff:      0.477D-02-0.104D-03-0.638D-02 0.469D-02 0.642D-02-0.179D-01
 Coeff:      0.294D-02 0.210D-01-0.455D-01 0.455D-01 0.659D-01-0.156D+00
 Coeff:     -0.884D+00 0.196D+01
 Gap=     0.100 Goal=   None    Shift=    0.000
 RMSDP=1.07D-05 MaxDP=1.46D-04 DE=-4.69D-08 OVMax= 3.57D-04

 Cycle  34  Pass 1  IDiag  3:
 E= 0.954707145270959E-01 Delta-E=       -0.000000029359 Rises=F Damp=F
 DIIS: error= 2.39D-06 at cycle  34 NSaved=  20.
 NSaved=20 IEnMin=20 EnMin= 0.954707145270959E-01 IErMin=20 ErrMin= 2.39D-06
 ErrMax= 2.39D-06  0.00D+00 EMaxC= 1.00D-01 BMatC= 5.48D-10 BMatP= 1.05D-09
 IDIUse=1 WtCom= 1.00D+00 WtEn= 0.00D+00
 Coeff-Com:  0.379D-03-0.252D-03-0.649D-03 0.251D-03-0.203D-03 0.331D-02
 Coeff-Com: -0.387D-03-0.775D-02 0.520D-02 0.412D-02-0.658D-02 0.159D-01
 Coeff-Com: -0.415D-02-0.559D-01 0.980D-01-0.139D+00 0.295D+00-0.464D+00
 Coeff-Com: -0.293D+00 0.155D+01
 Coeff:      0.379D-03-0.252D-03-0.649D-03 0.251D-03-0.203D-03 0.331D-02
 Coeff:     -0.387D-03-0.775D-02 0.520D-02 0.412D-02-0.658D-02 0.159D-01
 Coeff:     -0.415D-02-0.559D-01 0.980D-01-0.139D+00 0.295D+00-0.464D+00
 Coeff:     -0.293D+00 0.155D+01
 Gap=     0.100 Goal=   None    Shift=    0.000
 RMSDP=6.02D-06 MaxDP=7.44D-05 DE=-2.94D-08 OVMax= 1.89D-04

 Cycle  35  Pass 1  IDiag  1:
 E= 0.954707038707738E-01 Delta-E=       -0.000000010656 Rises=F Damp=F
 DIIS: error= 1.24D-06 at cycle  35 NSaved=  20.
 NSaved=20 IEnMin=20 EnMin= 0.954707038707738E-01 IErMin=20 ErrMin= 1.24D-06
 ErrMax= 1.24D-06  0.00D+00 EMaxC= 1.00D-01 BMatC= 1.66D-10 BMatP= 5.48D-10
 IDIUse=1 WtCom= 1.00D+00 WtEn= 0.00D+00
 Coeff-Com:  0.172D-03 0.244D-03-0.124D-02-0.107D-02 0.353D-02 0.229D-02
 Coeff-Com: -0.611D-02 0.747D-03 0.328D-02 0.355D-02-0.586D-02 0.768D-03
 Coeff-Com:  0.199D-01-0.317D-01-0.401D-02 0.682D-01 0.619D-01-0.259D+00
 Coeff-Com: -0.584D+00 0.173D+01
 Coeff:      0.172D-03 0.244D-03-0.124D-02-0.107D-02 0.353D-02 0.229D-02
 Coeff:     -0.611D-02 0.747D-03 0.328D-02 0.355D-02-0.586D-02 0.768D-03
 Coeff:      0.199D-01-0.317D-01-0.401D-02 0.682D-01 0.619D-01-0.259D+00
 Coeff:     -0.584D+00 0.173D+01
 RMSDP=4.78D-06 MaxDP=4.86D-05 DE=-1.07D-08 OVMax= 1.89D-04

 Cycle  36  Pass 1  IDiag  3:
 E= 0.954706991351486E-01 Delta-E=       -0.000000004736 Rises=F Damp=F
 DIIS: error= 6.06D-07 at cycle  36 NSaved=  20.
 NSaved=20 IEnMin=20 EnMin= 0.954706991351486E-01 IErMin=20 ErrMin= 6.06D-07
 ErrMax= 6.06D-07  0.00D+00 EMaxC= 1.00D-01 BMatC= 3.70D-11 BMatP= 1.66D-10
 IDIUse=1 WtCom= 1.00D+00 WtEn= 0.00D+00
 Coeff-Com:  0.463D-03-0.103D-02 0.760D-04 0.823D-03-0.161D-02 0.346D-02
 Coeff-Com: -0.449D-03-0.443D-02 0.121D-02 0.453D-02-0.143D-01 0.144D-01
 Coeff-Com: -0.126D-01-0.889D-02 0.259D-01-0.755D-02 0.912D-01 0.119D+00
 Coeff-Com: -0.823D+00 0.161D+01
 Coeff:      0.463D-03-0.103D-02 0.760D-04 0.823D-03-0.161D-02 0.346D-02
 Coeff:     -0.449D-03-0.443D-02 0.121D-02 0.453D-02-0.143D-01 0.144D-01
 Coeff:     -0.126D-01-0.889D-02 0.259D-01-0.755D-02 0.912D-01 0.119D+00
 Coeff:     -0.823D+00 0.161D+01
 Gap=     0.087 Goal=   None    Shift=    0.000
 RMSDP=1.60D-06 MaxDP=1.88D-05 DE=-4.74D-09 OVMax= 6.42D-05

 Cycle  37  Pass 1  IDiag  3:
 E= 0.954706981079880E-01 Delta-E=       -0.000000001027 Rises=F Damp=F
 DIIS: error= 3.37D-07 at cycle  37 NSaved=  20.
 NSaved=20 IEnMin=20 EnMin= 0.954706981079880E-01 IErMin=20 ErrMin= 3.37D-07
 ErrMax= 3.37D-07  0.00D+00 EMaxC= 1.00D-01 BMatC= 1.26D-11 BMatP= 3.70D-11
 IDIUse=1 WtCom= 1.00D+00 WtEn= 0.00D+00
 Coeff-Com:  0.380D-03 0.923D-04-0.882D-03 0.301D-03-0.848D-03 0.779D-03
 Coeff-Com: -0.658D-04 0.211D-03-0.303D-03 0.721D-02-0.171D-01 0.240D-01
 Coeff-Com: -0.823D-02-0.105D-01-0.283D-02-0.220D-01 0.280D-01 0.106D+00
 Coeff-Com: -0.728D+00 0.162D+01
 Coeff:      0.380D-03 0.923D-04-0.882D-03 0.301D-03-0.848D-03 0.779D-03
 Coeff:     -0.658D-04 0.211D-03-0.303D-03 0.721D-02-0.171D-01 0.240D-01
 Coeff:     -0.823D-02-0.105D-01-0.283D-02-0.220D-01 0.280D-01 0.106D+00
 Coeff:     -0.728D+00 0.162D+01
 Gap=     0.087 Goal=   None    Shift=    0.000
 RMSDP=8.21D-07 MaxDP=1.08D-05 DE=-1.03D-09 OVMax= 2.51D-05

 Cycle  38  Pass 1  IDiag  3:
 E= 0.954706977172464E-01 Delta-E=       -0.000000000391 Rises=F Damp=F
 DIIS: error= 2.18D-07 at cycle  38 NSaved=  20.
 NSaved=20 IEnMin=20 EnMin= 0.954706977172464E-01 IErMin=20 ErrMin= 2.18D-07
 ErrMax= 2.18D-07  0.00D+00 EMaxC= 1.00D-01 BMatC= 5.03D-12 BMatP= 1.26D-11
 IDIUse=1 WtCom= 1.00D+00 WtEn= 0.00D+00
 Coeff-Com: -0.242D-03 0.631D-03-0.177D-03-0.516D-03-0.323D-03 0.127D-02
 Coeff-Com: -0.378D-03 0.396D-03-0.242D-02 0.563D-02-0.964D-02 0.208D-02
 Coeff-Com:  0.819D-02-0.192D-02-0.154D-01-0.414D-01 0.116D+00-0.316D-01
 Coeff-Com: -0.870D+00 0.184D+01
 Coeff:     -0.242D-03 0.631D-03-0.177D-03-0.516D-03-0.323D-03 0.127D-02
 Coeff:     -0.378D-03 0.396D-03-0.242D-02 0.563D-02-0.964D-02 0.208D-02
 Coeff:      0.819D-02-0.192D-02-0.154D-01-0.414D-01 0.116D+00-0.316D-01
 Coeff:     -0.870D+00 0.184D+01
 Gap=     0.087 Goal=   None    Shift=    0.000
 RMSDP=8.10D-07 MaxDP=9.74D-06 DE=-3.91D-10 OVMax= 2.56D-05

 Cycle  39  Pass 1  IDiag  3:
 E= 0.954706975006729E-01 Delta-E=       -0.000000000217 Rises=F Damp=F
 DIIS: error= 1.43D-07 at cycle  39 NSaved=  20.
 NSaved=20 IEnMin=20 EnMin= 0.954706975006729E-01 IErMin=20 ErrMin= 1.43D-07
 ErrMax= 1.43D-07  0.00D+00 EMaxC= 1.00D-01 BMatC= 1.79D-12 BMatP= 5.03D-12
 IDIUse=1 WtCom= 1.00D+00 WtEn= 0.00D+00
 Coeff-Com: -0.408D-04 0.248D-04 0.296D-03 0.208D-04-0.102D-02 0.125D-02
 Coeff-Com:  0.291D-03-0.188D-02 0.184D-02-0.529D-03-0.343D-02 0.852D-02
 Coeff-Com: -0.667D-02 0.387D-02 0.961D-02-0.350D-01 0.774D-01 0.843D-01
 Coeff-Com: -0.795D+00 0.166D+01
 Coeff:     -0.408D-04 0.248D-04 0.296D-03 0.208D-04-0.102D-02 0.125D-02
 Coeff:      0.291D-03-0.188D-02 0.184D-02-0.529D-03-0.343D-02 0.852D-02
 Coeff:     -0.667D-02 0.387D-02 0.961D-02-0.350D-01 0.774D-01 0.843D-01
 Coeff:     -0.795D+00 0.166D+01
 Gap=     0.087 Goal=   None    Shift=    0.000
 RMSDP=4.58D-07 MaxDP=6.29D-06 DE=-2.17D-10 OVMax= 1.47D-05

 Cycle  40  Pass 1  IDiag  3:
 E= 0.954706974291639E-01 Delta-E=       -0.000000000072 Rises=F Damp=F
 DIIS: error= 8.34D-08 at cycle  40 NSaved=  20.
 NSaved=20 IEnMin=20 EnMin= 0.954706974291639E-01 IErMin=20 ErrMin= 8.34D-08
 ErrMax= 8.34D-08  0.00D+00 EMaxC= 1.00D-01 BMatC= 7.15D-13 BMatP= 1.79D-12
 IDIUse=1 WtCom= 1.00D+00 WtEn= 0.00D+00
 Coeff-Com: -0.157D-04-0.684D-04 0.299D-04-0.173D-03 0.560D-03-0.182D-03
 Coeff-Com: -0.707D-03 0.210D-02-0.170D-02-0.210D-02 0.543D-02-0.479D-02
 Coeff-Com: -0.955D-03-0.125D-02 0.845D-02-0.919D-02 0.235D-01 0.298D-01
 Coeff-Com: -0.726D+00 0.168D+01
 Coeff:     -0.157D-04-0.684D-04 0.299D-04-0.173D-03 0.560D-03-0.182D-03
 Coeff:     -0.707D-03 0.210D-02-0.170D-02-0.210D-02 0.543D-02-0.479D-02
 Coeff:     -0.955D-03-0.125D-02 0.845D-02-0.919D-02 0.235D-01 0.298D-01
 Coeff:     -0.726D+00 0.168D+01
 Gap=     0.087 Goal=   None    Shift=    0.000
 RMSDP=3.03D-07 MaxDP=4.14D-06 DE=-7.15D-11 OVMax= 9.51D-06

 Cycle  41  Pass 1  IDiag  3:
 E= 0.954706973996053E-01 Delta-E=       -0.000000000030 Rises=F Damp=F
 DIIS: error= 4.58D-08 at cycle  41 NSaved=  20.
 NSaved=20 IEnMin=20 EnMin= 0.954706973996053E-01 IErMin=20 ErrMin= 4.58D-08
 ErrMax= 4.58D-08  0.00D+00 EMaxC= 1.00D-01 BMatC= 2.85D-13 BMatP= 7.15D-13
 IDIUse=1 WtCom= 1.00D+00 WtEn= 0.00D+00
 Coeff-Com: -0.498D-04 0.649D-04-0.350D-03 0.577D-03-0.661D-05-0.725D-03
 Coeff-Com:  0.102D-02-0.893D-03-0.124D-02 0.309D-02-0.198D-02-0.744D-03
 Coeff-Com:  0.206D-03-0.208D-02-0.198D-02 0.509D-02 0.581D-01-0.791D-01
 Coeff-Com: -0.612D+00 0.163D+01
 Coeff:     -0.498D-04 0.649D-04-0.350D-03 0.577D-03-0.661D-05-0.725D-03
 Coeff:      0.102D-02-0.893D-03-0.124D-02 0.309D-02-0.198D-02-0.744D-03
 Coeff:      0.206D-03-0.208D-02-0.198D-02 0.509D-02 0.581D-01-0.791D-01
 Coeff:     -0.612D+00 0.163D+01
 Gap=     0.087 Goal=   None    Shift=    0.000
 RMSDP=2.13D-07 MaxDP=2.56D-06 DE=-2.96D-11 OVMax= 6.84D-06

 Cycle  42  Pass 1  IDiag  3:
 E= 0.954706973873272E-01 Delta-E=       -0.000000000012 Rises=F Damp=F
 DIIS: error= 2.66D-08 at cycle  42 NSaved=  20.
 NSaved=20 IEnMin=20 EnMin= 0.954706973873272E-01 IErMin=20 ErrMin= 2.66D-08
 ErrMax= 2.66D-08  0.00D+00 EMaxC= 1.00D-01 BMatC= 9.29D-14 BMatP= 2.85D-13
 IDIUse=1 WtCom= 1.00D+00 WtEn= 0.00D+00
 Coeff-Com: -0.664D-04 0.596D-04 0.579D-04-0.684D-04-0.127D-06 0.157D-03
 Coeff-Com: -0.367D-03 0.260D-03-0.350D-03 0.103D-02-0.148D-02-0.734D-03
 Coeff-Com:  0.137D-02-0.762D-03-0.131D-01 0.498D-01 0.200D-01-0.128D+00
 Coeff-Com: -0.451D+00 0.152D+01
 Coeff:     -0.664D-04 0.596D-04 0.579D-04-0.684D-04-0.127D-06 0.157D-03
 Coeff:     -0.367D-03 0.260D-03-0.350D-03 0.103D-02-0.148D-02-0.734D-03
 Coeff:      0.137D-02-0.762D-03-0.131D-01 0.498D-01 0.200D-01-0.128D+00
 Coeff:     -0.451D+00 0.152D+01
 Gap=     0.087 Goal=   None    Shift=    0.000
 RMSDP=1.17D-07 MaxDP=1.51D-06 DE=-1.23D-11 OVMax= 3.76D-06

 Cycle  43  Pass 1  IDiag  3:
 E= 0.954706973843713E-01 Delta-E=       -0.000000000003 Rises=F Damp=F
 DIIS: error= 1.44D-08 at cycle  43 NSaved=  20.
 NSaved=20 IEnMin=20 EnMin= 0.954706973843713E-01 IErMin=20 ErrMin= 1.44D-08
 ErrMax= 1.44D-08  0.00D+00 EMaxC= 1.00D-01 BMatC= 2.85D-14 BMatP= 9.29D-14
 IDIUse=1 WtCom= 1.00D+00 WtEn= 0.00D+00
 Coeff-Com:  0.191D-04-0.341D-04 0.358D-04 0.277D-04-0.164D-03 0.787D-04
 Coeff-Com:  0.210D-04 0.365D-03-0.969D-03 0.885D-03-0.104D-02 0.213D-02
 Coeff-Com: -0.185D-02-0.109D-01 0.232D-01-0.835D-02 0.602D-01-0.152D+00
 Coeff-Com: -0.398D+00 0.149D+01
 Coeff:      0.191D-04-0.341D-04 0.358D-04 0.277D-04-0.164D-03 0.787D-04
 Coeff:      0.210D-04 0.365D-03-0.969D-03 0.885D-03-0.104D-02 0.213D-02
 Coeff:     -0.185D-02-0.109D-01 0.232D-01-0.835D-02 0.602D-01-0.152D+00
 Coeff:     -0.398D+00 0.149D+01
 Gap=     0.087 Goal=   None    Shift=    0.000
 RMSDP=5.85D-08 MaxDP=7.69D-07 DE=-2.96D-12 OVMax= 1.75D-06

 Cycle  44  Pass 1  IDiag  3:
 E= 0.954706973833481E-01 Delta-E=       -0.000000000001 Rises=F Damp=F
 DIIS: error= 9.54D-09 at cycle  44 NSaved=  20.
 NSaved=20 IEnMin=20 EnMin= 0.954706973833481E-01 IErMin=20 ErrMin= 9.54D-09
 ErrMax= 9.54D-09  0.00D+00 EMaxC= 1.00D-01 BMatC= 8.18D-15 BMatP= 2.85D-14
 IDIUse=1 WtCom= 1.00D+00 WtEn= 0.00D+00
 Large coefficients: NSaved= 20 BigCof=    0.00 CofMax=   10.00 Det=-2.95D-15
 Inversion failed.  Reducing to 19 matrices.
 Large coefficients: NSaved= 19 BigCof=    0.00 CofMax=   10.00 Det=-2.95D-15
 Inversion failed.  Reducing to 18 matrices.
 Large coefficients: NSaved= 18 BigCof=    0.00 CofMax=   10.00 Det=-2.95D-15
 Inversion failed.  Reducing to 17 matrices.
 Large coefficients: NSaved= 17 BigCof=    0.00 CofMax=   10.00 Det=-2.96D-15
 Inversion failed.  Reducing to 16 matrices.
 Large coefficients: NSaved= 16 BigCof=    0.00 CofMax=   10.00 Det=-2.97D-15
 Inversion failed.  Reducing to 15 matrices.
 Coeff-Com:  0.105D-03-0.180D-03 0.422D-04-0.181D-03 0.687D-03-0.285D-03
 Coeff-Com: -0.718D-03 0.267D-02-0.910D-02 0.101D-01 0.362D-02 0.489D-01
 Coeff-Com: -0.749D-01-0.515D+00 0.153D+01
 Coeff:      0.105D-03-0.180D-03 0.422D-04-0.181D-03 0.687D-03-0.285D-03
 Coeff:     -0.718D-03 0.267D-02-0.910D-02 0.101D-01 0.362D-02 0.489D-01
 Coeff:     -0.749D-01-0.515D+00 0.153D+01
 Gap=     0.087 Goal=   None    Shift=    0.000
 RMSDP=2.59D-08 MaxDP=3.31D-07 DE=-1.02D-12 OVMax= 7.41D-07

 Cycle  45  Pass 1  IDiag  3:
 E= 0.954706973831208E-01 Delta-E=       -0.000000000000 Rises=F Damp=F
 DIIS: error= 7.50D-09 at cycle  45 NSaved=  16.
 NSaved=16 IEnMin=16 EnMin= 0.954706973831208E-01 IErMin=16 ErrMin= 7.50D-09
 ErrMax= 7.50D-09  0.00D+00 EMaxC= 1.00D-01 BMatC= 2.80D-15 BMatP= 8.18D-15
 IDIUse=1 WtCom= 1.00D+00 WtEn= 0.00D+00
 Large coefficients: NSaved= 16 BigCof=    0.00 CofMax=   10.00 Det=-6.75D-16
 Inversion failed.  Reducing to 15 matrices.
 Coeff-Com:  0.464D-04-0.157D-03 0.367D-03-0.116D-03-0.522D-03 0.430D-03
 Coeff-Com:  0.267D-02-0.594D-02 0.177D-02-0.462D-03 0.106D-02 0.455D-01
 Coeff-Com: -0.192D-01-0.655D+00 0.163D+01
 Coeff:      0.464D-04-0.157D-03 0.367D-03-0.116D-03-0.522D-03 0.430D-03
 Coeff:      0.267D-02-0.594D-02 0.177D-02-0.462D-03 0.106D-02 0.455D-01
 Coeff:     -0.192D-01-0.655D+00 0.163D+01
 Gap=     0.087 Goal=   None    Shift=    0.000
 RMSDP=1.30D-08 MaxDP=1.26D-07 DE=-2.27D-13 OVMax= 3.69D-07

 Cycle  46  Pass 1  IDiag  3:
 E= 0.954706973828934E-01 Delta-E=       -0.000000000000 Rises=F Damp=F
 DIIS: error= 5.07D-09 at cycle  46 NSaved=  16.
 NSaved=16 IEnMin=16 EnMin= 0.954706973828934E-01 IErMin=16 ErrMin= 5.07D-09
 ErrMax= 5.07D-09  0.00D+00 EMaxC= 1.00D-01 BMatC= 1.10D-15 BMatP= 2.80D-15
 IDIUse=1 WtCom= 1.00D+00 WtEn= 0.00D+00
 Large coefficients: NSaved= 16 BigCof=    0.00 CofMax=   10.00 Det=-1.58D-16
 Inversion failed.  Reducing to 15 matrices.
 Coeff-Com:  0.178D-04-0.155D-04 0.808D-04 0.364D-03-0.162D-02 0.111D-02
 Coeff-Com:  0.186D-02-0.160D-02-0.346D-02 0.821D-02-0.182D-01 0.605D-01
 Coeff-Com:  0.962D-01-0.104D+01 0.190D+01
 Coeff:      0.178D-04-0.155D-04 0.808D-04 0.364D-03-0.162D-02 0.111D-02
 Coeff:      0.186D-02-0.160D-02-0.346D-02 0.821D-02-0.182D-01 0.605D-01
 Coeff:      0.962D-01-0.104D+01 0.190D+01
 Gap=     0.087 Goal=   None    Shift=    0.000
 RMSDP=9.49D-09 MaxDP=1.26D-07 DE=-2.27D-13 OVMax= 2.47D-07

 Cycle  47  Pass 2  IDiag  1:
 SCF Done:  E(RPM6) =  0.954706973829E-01 A.U. after   47 cycles
            NFock= 46  Conv=0.95D-08     -V/T= 1.0006
 KE=-1.705280657526D+02 PE=-9.120709221407D+02 EE= 4.917288940912D+02
 Leave Link  502 at Fri Jan  7 12:01:17 2022, MaxMem=   402653184 cpu:             313.8 elap:              53.8
 (Enter /work/01114/jfonner/frontera/gaussian/16rC.01/g16/l601.exe)
 Copying SCF densities to generalized density rwf, IOpCl= 0 IROHF=0.

 **********************************************************************

            Population analysis using the SCF Density.

 **********************************************************************

 Alpha  occ. eigenvalues --   -1.78072  -1.76388  -1.74889  -1.67256  -1.66298
 Alpha  occ. eigenvalues --   -1.65707  -1.63606  -1.61693  -1.55418  -1.49916
 Alpha  occ. eigenvalues --   -1.46883  -1.41524  -1.37246  -1.31173  -1.27503
 Alpha  occ. eigenvalues --   -1.25396  -1.18988  -1.17715  -1.16323  -1.14944
 Alpha  occ. eigenvalues --   -1.13652  -1.13144  -1.12380  -1.10584  -1.08492
 Alpha  occ. eigenvalues --   -1.06885  -1.06735  -1.05331  -1.04084  -1.02835
 Alpha  occ. eigenvalues --   -1.01389  -0.99774  -0.97547  -0.95501  -0.93812
 Alpha  occ. eigenvalues --   -0.93390  -0.92328  -0.89811  -0.89515  -0.82936
 Alpha virt. eigenvalues --   -0.74193  -0.66993  -0.63440  -0.62895  -0.62400
 Alpha virt. eigenvalues --   -0.62190  -0.57700  -0.57683  -0.56756  -0.56349
 Alpha virt. eigenvalues --   -0.53203  -0.51341  -0.49809  -0.48718  -0.48486
 Alpha virt. eigenvalues --   -0.47777  -0.47645  -0.46776  -0.46244  -0.45615
 Alpha virt. eigenvalues --   -0.45143  -0.43969  -0.42940  -0.39451  -0.38431
 Alpha virt. eigenvalues --   -0.38335  -0.36876  -0.36567  -0.35842  -0.34604
 Alpha virt. eigenvalues --   -0.30120  -0.26098
          Condensed to atoms (all electrons):
               1          2          3          4          5          6
     1  C    3.532703   0.000000   0.000000   0.000000   0.000000   0.000000
     2  O    0.000000   5.948833   0.000000   0.000000   0.000000   0.000000
     3  N    0.000000   0.000000   5.053731   0.000000   0.000000   0.000000
     4  C    0.000000   0.000000   0.000000   3.723801   0.000000   0.000000
     5  C    0.000000   0.000000   0.000000   0.000000   3.614958   0.000000
     6  O    0.000000   0.000000   0.000000   0.000000   0.000000   6.164537
     7  N    0.000000   0.000000   0.000000   0.000000   0.000000   0.000000
     8  C    0.000000   0.000000   0.000000   0.000000   0.000000   0.000000
     9  C    0.000000   0.000000   0.000000   0.000000   0.000000   0.000000
    10  C    0.000000   0.000000   0.000000   0.000000   0.000000   0.000000
    11  C    0.000000   0.000000   0.000000   0.000000   0.000000   0.000000
    12  O    0.000000   0.000000   0.000000   0.000000   0.000000   0.000000
    13  N    0.000000   0.000000   0.000000   0.000000   0.000000   0.000000
    14  C    0.000000   0.000000   0.000000   0.000000   0.000000   0.000000
    15  C    0.000000   0.000000   0.000000   0.000000   0.000000   0.000000
    16  O    0.000000   0.000000   0.000000   0.000000   0.000000   0.000000
    17  C    0.000000   0.000000   0.000000   0.000000   0.000000   0.000000
    18  H    0.000000   0.000000   0.000000   0.000000   0.000000   0.000000
    19  H    0.000000   0.000000   0.000000   0.000000   0.000000   0.000000
    20  H    0.000000   0.000000   0.000000   0.000000   0.000000   0.000000
    21  H    0.000000   0.000000   0.000000   0.000000   0.000000   0.000000
               7          8          9         10         11         12
     1  C    0.000000   0.000000   0.000000   0.000000   0.000000   0.000000
     2  O    0.000000   0.000000   0.000000   0.000000   0.000000   0.000000
     3  N    0.000000   0.000000   0.000000   0.000000   0.000000   0.000000
     4  C    0.000000   0.000000   0.000000   0.000000   0.000000   0.000000
     5  C    0.000000   0.000000   0.000000   0.000000   0.000000   0.000000
     6  O    0.000000   0.000000   0.000000   0.000000   0.000000   0.000000
     7  N    5.380853   0.000000   0.000000   0.000000   0.000000   0.000000
     8  C    0.000000   3.700618   0.000000   0.000000   0.000000   0.000000
     9  C    0.000000   0.000000   4.434174   0.000000   0.000000   0.000000
    10  C    0.000000   0.000000   0.000000   2.928825   0.000000   0.000000
    11  C    0.000000   0.000000   0.000000   0.000000   3.656050   0.000000
    12  O    0.000000   0.000000   0.000000   0.000000   0.000000   6.128458
    13  N    0.000000   0.000000   0.000000   0.000000   0.000000   0.000000
    14  C    0.000000   0.000000   0.000000   0.000000   0.000000   0.000000
    15  C    0.000000   0.000000   0.000000   0.000000   0.000000   0.000000
    16  O    0.000000   0.000000   0.000000   0.000000   0.000000   0.000000
    17  C    0.000000   0.000000   0.000000   0.000000   0.000000   0.000000
    18  H    0.000000   0.000000   0.000000   0.000000   0.000000   0.000000
    19  H    0.000000   0.000000   0.000000   0.000000   0.000000   0.000000
    20  H    0.000000   0.000000   0.000000   0.000000   0.000000   0.000000
    21  H    0.000000   0.000000   0.000000   0.000000   0.000000   0.000000
              13         14         15         16         17         18
     1  C    0.000000   0.000000   0.000000   0.000000   0.000000   0.000000
     2  O    0.000000   0.000000   0.000000   0.000000   0.000000   0.000000
     3  N    0.000000   0.000000   0.000000   0.000000   0.000000   0.000000
     4  C    0.000000   0.000000   0.000000   0.000000   0.000000   0.000000
     5  C    0.000000   0.000000   0.000000   0.000000   0.000000   0.000000
     6  O    0.000000   0.000000   0.000000   0.000000   0.000000   0.000000
     7  N    0.000000   0.000000   0.000000   0.000000   0.000000   0.000000
     8  C    0.000000   0.000000   0.000000   0.000000   0.000000   0.000000
     9  C    0.000000   0.000000   0.000000   0.000000   0.000000   0.000000
    10  C    0.000000   0.000000   0.000000   0.000000   0.000000   0.000000
    11  C    0.000000   0.000000   0.000000   0.000000   0.000000   0.000000
    12  O    0.000000   0.000000   0.000000   0.000000   0.000000   0.000000
    13  N    5.219500   0.000000   0.000000   0.000000   0.000000   0.000000
    14  C    0.000000   3.619822   0.000000   0.000000   0.000000   0.000000
    15  C    0.000000   0.000000   4.133227   0.000000   0.000000   0.000000
    16  O    0.000000   0.000000   0.000000   5.992717   0.000000   0.000000
    17  C    0.000000   0.000000   0.000000   0.000000   2.922329   0.000000
    18  H    0.000000   0.000000   0.000000   0.000000   0.000000   0.983451
    19  H    0.000000   0.000000   0.000000   0.000000   0.000000   0.000000
    20  H    0.000000   0.000000   0.000000   0.000000   0.000000   0.000000
    21  H    0.000000   0.000000   0.000000   0.000000   0.000000   0.000000
              19         20         21
     1  C    0.000000   0.000000   0.000000
     2  O    0.000000   0.000000   0.000000
     3  N    0.000000   0.000000   0.000000
     4  C    0.000000   0.000000   0.000000
     5  C    0.000000   0.000000   0.000000
     6  O    0.000000   0.000000   0.000000
     7  N    0.000000   0.000000   0.000000
     8  C    0.000000   0.000000   0.000000
     9  C    0.000000   0.000000   0.000000
    10  C    0.000000   0.000000   0.000000
    11  C    0.000000   0.000000   0.000000
    12  O    0.000000   0.000000   0.000000
    13  N    0.000000   0.000000   0.000000
    14  C    0.000000   0.000000   0.000000
    15  C    0.000000   0.000000   0.000000
    16  O    0.000000   0.000000   0.000000
    17  C    0.000000   0.000000   0.000000
    18  H    0.000000   0.000000   0.000000
    19  H    1.501084   0.000000   0.000000
    20  H    0.000000   0.765210   0.000000
    21  H    0.000000   0.000000   0.595119
 Mulliken charges:
               1
     1  C    0.467297
     2  O    0.051167
     3  N   -0.053731
     4  C    0.276199
     5  C    0.385042
     6  O   -0.164537
     7  N   -0.380853
     8  C    0.299382
     9  C   -0.434174
    10  C    1.071175
    11  C    0.343950
    12  O   -0.128458
    13  N   -0.219500
    14  C    0.380178
    15  C   -0.133227
    16  O    0.007283
    17  C    1.077671
    18  H    0.016549
    19  H   -0.501084
    20  H    0.234790
    21  H    0.404881
 Sum of Mulliken charges =   3.00000
 Mulliken charges with hydrogens summed into heavy atoms:
               1
     1  C    0.483846
     2  O    0.051167
     3  N   -0.053731
     4  C    0.276199
     5  C    0.385042
     6  O   -0.164537
     7  N   -0.380853
     8  C    0.299382
     9  C   -0.935258
    10  C    1.071175
    11  C    0.343950
    12  O   -0.128458
    13  N   -0.219500
    14  C    1.019849
    15  C   -0.133227
    16  O    0.007283
    17  C    1.077671
 Charge=              3.0000 electrons
 Dipole moment (field-independent basis, Debye):
    X=             55.1007    Y=              7.7005    Z=            244.6233  Tot=            250.8703
 N-N= 5.909655644995D+02 E-N=-9.120709220759D+02  KE=-1.705280657526D+02
 Leave Link  601 at Fri Jan  7 12:01:18 2022, MaxMem=   402653184 cpu:               1.9 elap:               0.7
 (Enter /work/01114/jfonner/frontera/gaussian/16rC.01/g16/l9999.exe)

 Test job not archived.
 1\1\GINC-C208-012\SP\RPM6\ZDO\C10H4N3O4(3+)\SA748948\07-Jan-2022\0\\#p
  int=acc2e=12 pm6 charge nosymm\\Atom number=21\\3,1\C,0,4.2710017,0.8
 1698251,11.29599614\O,0,4.35898767,2.03299404,11.3669919\N,0,3.4919925
 8,0.10401098,12.0729888\C,0,2.58498638,0.67698929,13.08500481\C,0,3.00
 599759,0.04699653,14.36101452\O,0,2.95799299,-1.16900433,14.51500215\N
 ,0,3.48100165,0.88700141,15.26198797\C,0,4.16300283,0.39199376,16.4419
 9186\C,0,1.12699955,0.32999747,12.82699481\C,0,0.24799631,0.67499356,1
 4.03798795\C,0,3.42400002,0.96498763,17.63099045\O,0,3.13600342,2.1099
 9946,17.61199391\N,0,3.17300496,0.12899699,18.64699945\C,0,2.55900471,
 0.51600847,19.9030147\C,0,5.6879954,0.75001429,16.38901157\O,0,6.26399
 949,0.13000576,15.2359942\C,0,6.41999787,0.21000107,17.56899229\H,0,4.
 84396528,0.2433052,10.59777907\H,0,0.80274474,0.84321401,11.94587756\H
 ,0,3.1211177,0.06260353,20.69254174\H,0,1.55947656,0.13828211,19.95928
 441\\Version=ES64L-G16RevC.01\HF=0.0954707\RMSD=9.491e-09\Dipole=1.506
 7108,-0.1825181,10.20393\PG=C01 [X(C10H4N3O4)]\\@


 WHEN IT COMES TO CASH FLOW, IT SEEMS LIKE THE TIDE IS ALWAYS GOING OUT.
 Job cpu time:       0 days  0 hours  6 minutes 17.1 seconds.
 Elapsed time:       0 days  0 hours  1 minutes  5.7 seconds.
 File lengths (MBytes):  RWF=      6 Int=      0 D2E=      0 Chk=      2 Scr=      1
 Normal termination of Gaussian 16 at Fri Jan  7 12:01:19 2022.
