Atom number=19                                                          
SP        RPM6                                                        ZDO                 
Number of atoms                            I               19
Info1-9                                    I   N=           9
          81          80           0           0           0         111
           1           8        2302
Full Title                                 C   N=           2
Atom number=19          
Route                                      C   N=           3
#p int=acc2e=12 pm6 charge nosymm   
Charge                                     I                1
Multiplicity                               I                1
Number of electrons                        I               74
Number of alpha electrons                  I               37
Number of beta electrons                   I               37
Number of basis functions                  I               64
Number of independent functions            I               64
Number of point charges in /Mol/           I                0
Number of translation vectors              I                0
Atomic numbers                             I   N=          19
           6           8           7           6           6           8
           7           6           6           8           7           6
           6           8           6           1           1           1
           1
Nuclear charges                            R   N=          19
  4.00000000E+00  6.00000000E+00  5.00000000E+00  4.00000000E+00  4.00000000E+00
  6.00000000E+00  5.00000000E+00  4.00000000E+00  4.00000000E+00  6.00000000E+00
  5.00000000E+00  4.00000000E+00  4.00000000E+00  6.00000000E+00  4.00000000E+00
  1.00000000E+00  1.00000000E+00  1.00000000E+00  1.00000000E+00
Current cartesian coordinates              R   N=          57
  6.47042229E+00  1.82356233E+00  3.33177433E+01  5.92618759E+00  3.98732110E+00
  3.32818450E+01  5.99611037E+00  2.43768982E-01  3.52377220E+01  4.83581805E+00
  9.75114686E-01  3.76112468E+01  6.33055986E+00 -2.30556300E-01  3.97107163E+01
  6.36082101E+00 -2.53036312E+00  3.99488078E+01  7.68551460E+00  1.30011814E+00
  4.11355373E+01  9.23698937E+00  3.87386977E-01  4.31821289E+01  8.22031928E+00
  1.45321912E+00  4.56822221E+01  7.86317236E+00  3.74357546E+00  4.58617493E+01
  7.68175280E+00 -2.26734953E-01  4.75284848E+01  7.02979407E+00  5.91495011E-01
  5.01061053E+01  2.15047670E+00 -3.96883682E-02  3.77624215E+01  7.42660628E-01
  7.44574165E-01  3.55722016E+01  9.18403760E-01  9.46757758E-01  3.99998346E+01
  7.45825884E+00  1.05763253E+00  3.17283904E+01  1.11691030E+01  9.23493794E-01
  4.29212868E+01  8.64380069E+00  3.62788620E-01  5.13024280E+01  5.41247454E+00
 -3.82081930E-01  5.08306310E+01
Number of symbols in /Mol/                 I                0
Int Atom Types                             I   N=          19
           0           0           0           0           0           0
           0           0           0           0           0           0
           0           0           0           0           0           0
           0
Force Field                                I                0
Atom Types                                 C   N=          19
                                                            
                                                            
                                                            
                                                
MM charges                                 R   N=          19
  0.00000000E+00  0.00000000E+00  0.00000000E+00  0.00000000E+00  0.00000000E+00
  0.00000000E+00  0.00000000E+00  0.00000000E+00  0.00000000E+00  0.00000000E+00
  0.00000000E+00  0.00000000E+00  0.00000000E+00  0.00000000E+00  0.00000000E+00
  0.00000000E+00  0.00000000E+00  0.00000000E+00  0.00000000E+00
Integer atomic weights                     I   N=          19
          12          16          14          12          12          16
          14          12          12          16          14          12
          12          16          12           1           1           1
           1
Real atomic weights                        R   N=          19
  1.20000000E+01  1.59949146E+01  1.40030740E+01  1.20000000E+01  1.20000000E+01
  1.59949146E+01  1.40030740E+01  1.20000000E+01  1.20000000E+01  1.59949146E+01
  1.40030740E+01  1.20000000E+01  1.20000000E+01  1.59949146E+01  1.20000000E+01
  1.00782504E+00  1.00782504E+00  1.00782504E+00  1.00782504E+00
Atom fragment info                         I   N=          19
           0           0           0           0           0           0
           0           0           0           0           0           0
           0           0           0           0           0           0
           0
Atom residue num                           I   N=          19
           0           0           0           0           0           0
           0           0           0           0           0           0
           0           0           0           0           0           0
           0
Nuclear spins                              I   N=          19
           0           0           2           0           0           0
           2           0           0           0           2           0
           0           0           0           1           1           1
           1
Nuclear ZEff                               R   N=          19
 -3.90000000E+00 -6.00000000E+00 -4.90000000E+00 -3.90000000E+00 -3.90000000E+00
 -6.00000000E+00 -4.90000000E+00 -3.90000000E+00 -3.90000000E+00 -6.00000000E+00
 -4.90000000E+00 -3.90000000E+00 -3.90000000E+00 -6.00000000E+00 -3.90000000E+00
 -1.00000000E+00 -1.00000000E+00 -1.00000000E+00 -1.00000000E+00
Nuclear ZNuc                               R   N=          19
  6.00000000E+00  8.00000000E+00  7.00000000E+00  6.00000000E+00  6.00000000E+00
  8.00000000E+00  7.00000000E+00  6.00000000E+00  6.00000000E+00  8.00000000E+00
  7.00000000E+00  6.00000000E+00  6.00000000E+00  8.00000000E+00  6.00000000E+00
  1.00000000E+00  1.00000000E+00  1.00000000E+00  1.00000000E+00
Nuclear QMom                               R   N=          19
  0.00000000E+00  0.00000000E+00  2.04400000E+00  0.00000000E+00  0.00000000E+00
  0.00000000E+00  2.04400000E+00  0.00000000E+00  0.00000000E+00  0.00000000E+00
  2.04400000E+00  0.00000000E+00  0.00000000E+00  0.00000000E+00  0.00000000E+00
  0.00000000E+00  0.00000000E+00  0.00000000E+00  0.00000000E+00
Nuclear GFac                               R   N=          19
  0.00000000E+00  0.00000000E+00  4.03761000E-01  0.00000000E+00  0.00000000E+00
  0.00000000E+00  4.03761000E-01  0.00000000E+00  0.00000000E+00  0.00000000E+00
  4.03761000E-01  0.00000000E+00  0.00000000E+00  0.00000000E+00  0.00000000E+00
  2.79284600E+00  2.79284600E+00  2.79284600E+00  2.79284600E+00
MicOpt                                     I   N=          19
          -1          -1          -1          -1          -1          -1
          -1          -1          -1          -1          -1          -1
          -1          -1          -1          -1          -1          -1
          -1
Number of residues                         I                0
Number of secondary structures             I                0
Number of contracted shells                I               19
Number of primitive shells                 I              114
Pure/Cartesian d shells                    I                0
Pure/Cartesian f shells                    I                0
Highest angular momentum                   I                1
Largest degree of contraction              I                6
Shell types                                I   N=          19
          -1          -1          -1          -1          -1          -1
          -1          -1          -1          -1          -1          -1
          -1          -1          -1           0           0           0
           0
Number of primitives per shell             I   N=          19
           6           6           6           6           6           6
           6           6           6           6           6           6
           6           6           6           6           6           6
           6
Shell to atom map                          I   N=          19
           1           2           3           4           5           6
           7           8           9          10          11          12
          13          14          15          16          17          18
          19
Primitive exponents                        R   N=         114
  1.14476344E+01  3.29633588E+00  1.29653143E+00  5.92558930E-01  2.94896438E-01
  1.51447622E-01  8.02643074E+01  2.31120341E+01  9.09054165E+00  4.15468650E+00
  2.06764625E+00  1.06186467E+00  1.54719623E+01  4.45513742E+00  1.75231709E+00
  8.00868468E-01  3.98565014E-01  2.04687870E-01  1.14476344E+01  3.29633588E+00
  1.29653143E+00  5.92558930E-01  2.94896438E-01  1.51447622E-01  1.14476344E+01
  3.29633588E+00  1.29653143E+00  5.92558930E-01  2.94896438E-01  1.51447622E-01
  8.02643074E+01  2.31120341E+01  9.09054165E+00  4.15468650E+00  2.06764625E+00
  1.06186467E+00  1.54719623E+01  4.45513742E+00  1.75231709E+00  8.00868468E-01
  3.98565014E-01  2.04687870E-01  1.14476344E+01  3.29633588E+00  1.29653143E+00
  5.92558930E-01  2.94896438E-01  1.51447622E-01  1.14476344E+01  3.29633588E+00
  1.29653143E+00  5.92558930E-01  2.94896438E-01  1.51447622E-01  8.02643074E+01
  2.31120341E+01  9.09054165E+00  4.15468650E+00  2.06764625E+00  1.06186467E+00
  1.54719623E+01  4.45513742E+00  1.75231709E+00  8.00868468E-01  3.98565014E-01
  2.04687870E-01  1.14476344E+01  3.29633588E+00  1.29653143E+00  5.92558930E-01
  2.94896438E-01  1.51447622E-01  1.14476344E+01  3.29633588E+00  1.29653143E+00
  5.92558930E-01  2.94896438E-01  1.51447622E-01  8.02643074E+01  2.31120341E+01
  9.09054165E+00  4.15468650E+00  2.06764625E+00  1.06186467E+00  1.14476344E+01
  3.29633588E+00  1.29653143E+00  5.92558930E-01  2.94896438E-01  1.51447622E-01
  4.39461478E+00  1.26542531E+00  4.97723458E-01  2.27476537E-01  1.13207340E-01
  5.81389949E-02  4.39461478E+00  1.26542531E+00  4.97723458E-01  2.27476537E-01
  1.13207340E-01  5.81389949E-02  4.39461478E+00  1.26542531E+00  4.97723458E-01
  2.27476537E-01  1.13207340E-01  5.81389949E-02  4.39461478E+00  1.26542531E+00
  4.97723458E-01  2.27476537E-01  1.13207340E-01  5.81389949E-02
Contraction coefficients                   R   N=         114
 -9.73739553E-03 -7.26587678E-02 -1.71615520E-01  1.28977624E-01  7.28861451E-01
  3.01331742E-01 -9.73739553E-03 -7.26587678E-02 -1.71615520E-01  1.28977624E-01
  7.28861451E-01  3.01331742E-01 -9.73739553E-03 -7.26587678E-02 -1.71615520E-01
  1.28977624E-01  7.28861451E-01  3.01331742E-01 -9.73739553E-03 -7.26587678E-02
 -1.71615520E-01  1.28977624E-01  7.28861451E-01  3.01331742E-01 -9.73739553E-03
 -7.26587678E-02 -1.71615520E-01  1.28977624E-01  7.28861451E-01  3.01331742E-01
 -9.73739553E-03 -7.26587678E-02 -1.71615520E-01  1.28977624E-01  7.28861451E-01
  3.01331742E-01 -9.73739553E-03 -7.26587678E-02 -1.71615520E-01  1.28977624E-01
  7.28861451E-01  3.01331742E-01 -9.73739553E-03 -7.26587678E-02 -1.71615520E-01
  1.28977624E-01  7.28861451E-01  3.01331742E-01 -9.73739553E-03 -7.26587678E-02
 -1.71615520E-01  1.28977624E-01  7.28861451E-01  3.01331742E-01 -9.73739553E-03
 -7.26587678E-02 -1.71615520E-01  1.28977624E-01  7.28861451E-01  3.01331742E-01
 -9.73739553E-03 -7.26587678E-02 -1.71615520E-01  1.28977624E-01  7.28861451E-01
  3.01331742E-01 -9.73739553E-03 -7.26587678E-02 -1.71615520E-01  1.28977624E-01
  7.28861451E-01  3.01331742E-01 -9.73739553E-03 -7.26587678E-02 -1.71615520E-01
  1.28977624E-01  7.28861451E-01  3.01331742E-01 -9.73739553E-03 -7.26587678E-02
 -1.71615520E-01  1.28977624E-01  7.28861451E-01  3.01331742E-01 -9.73739553E-03
 -7.26587678E-02 -1.71615520E-01  1.28977624E-01  7.28861451E-01  3.01331742E-01
 -9.73739553E-03 -7.26587678E-02 -1.71615520E-01  1.28977624E-01  7.28861451E-01
  3.01331742E-01 -9.73739553E-03 -7.26587678E-02 -1.71615520E-01  1.28977624E-01
  7.28861451E-01  3.01331742E-01 -9.73739553E-03 -7.26587678E-02 -1.71615520E-01
  1.28977624E-01  7.28861451E-01  3.01331742E-01 -9.73739553E-03 -7.26587678E-02
 -1.71615520E-01  1.28977624E-01  7.28861451E-01  3.01331742E-01
P(S=P) Contraction coefficients            R   N=         114
 -8.10494336E-03 -1.71547892E-02  7.36978576E-02  3.96514999E-01  4.97808488E-01
  1.17482582E-01 -8.10494336E-03 -1.71547892E-02  7.36978576E-02  3.96514999E-01
  4.97808488E-01  1.17482582E-01 -8.10494336E-03 -1.71547892E-02  7.36978576E-02
  3.96514999E-01  4.97808488E-01  1.17482582E-01 -8.10494336E-03 -1.71547892E-02
  7.36978576E-02  3.96514999E-01  4.97808488E-01  1.17482582E-01 -8.10494336E-03
 -1.71547892E-02  7.36978576E-02  3.96514999E-01  4.97808488E-01  1.17482582E-01
 -8.10494336E-03 -1.71547892E-02  7.36978576E-02  3.96514999E-01  4.97808488E-01
  1.17482582E-01 -8.10494336E-03 -1.71547892E-02  7.36978576E-02  3.96514999E-01
  4.97808488E-01  1.17482582E-01 -8.10494336E-03 -1.71547892E-02  7.36978576E-02
  3.96514999E-01  4.97808488E-01  1.17482582E-01 -8.10494336E-03 -1.71547892E-02
  7.36978576E-02  3.96514999E-01  4.97808488E-01  1.17482582E-01 -8.10494336E-03
 -1.71547892E-02  7.36978576E-02  3.96514999E-01  4.97808488E-01  1.17482582E-01
 -8.10494336E-03 -1.71547892E-02  7.36978576E-02  3.96514999E-01  4.97808488E-01
  1.17482582E-01 -8.10494336E-03 -1.71547892E-02  7.36978576E-02  3.96514999E-01
  4.97808488E-01  1.17482582E-01 -8.10494336E-03 -1.71547892E-02  7.36978576E-02
  3.96514999E-01  4.97808488E-01  1.17482582E-01 -8.10494336E-03 -1.71547892E-02
  7.36978576E-02  3.96514999E-01  4.97808488E-01  1.17482582E-01 -8.10494336E-03
 -1.71547892E-02  7.36978576E-02  3.96514999E-01  4.97808488E-01  1.17482582E-01
  0.00000000E+00  0.00000000E+00  0.00000000E+00  0.00000000E+00  0.00000000E+00
  0.00000000E+00  0.00000000E+00  0.00000000E+00  0.00000000E+00  0.00000000E+00
  0.00000000E+00  0.00000000E+00  0.00000000E+00  0.00000000E+00  0.00000000E+00
  0.00000000E+00  0.00000000E+00  0.00000000E+00  0.00000000E+00  0.00000000E+00
  0.00000000E+00  0.00000000E+00  0.00000000E+00  0.00000000E+00
Coordinates of each shell                  R   N=          57
  6.47042229E+00  1.82356233E+00  3.33177433E+01  5.92618759E+00  3.98732110E+00
  3.32818450E+01  5.99611037E+00  2.43768982E-01  3.52377220E+01  4.83581805E+00
  9.75114686E-01  3.76112468E+01  6.33055986E+00 -2.30556300E-01  3.97107163E+01
  6.36082101E+00 -2.53036312E+00  3.99488078E+01  7.68551460E+00  1.30011814E+00
  4.11355373E+01  9.23698937E+00  3.87386977E-01  4.31821289E+01  8.22031928E+00
  1.45321912E+00  4.56822221E+01  7.86317236E+00  3.74357546E+00  4.58617493E+01
  7.68175280E+00 -2.26734953E-01  4.75284848E+01  7.02979407E+00  5.91495011E-01
  5.01061053E+01  2.15047670E+00 -3.96883682E-02  3.77624215E+01  7.42660628E-01
  7.44574165E-01  3.55722016E+01  9.18403760E-01  9.46757758E-01  3.99998346E+01
  7.45825884E+00  1.05763253E+00  3.17283904E+01  1.11691030E+01  9.23493794E-01
  4.29212868E+01  8.64380069E+00  3.62788620E-01  5.13024280E+01  5.41247454E+00
 -3.82081930E-01  5.08306310E+01
Num ILSW                                   I              100
ILSW                                       I   N=         100
           0           0           0           0           2           0
           0           0           0           0           0          -1
           5           0           0           0           0           0
           0           0           0           0           0           0
           1           1           0           0           0           0
           0           0      100000           0          -1           0
           0           0           0           0           0           0
           0           0           0          40           0           0
           0 -2000000000           1           0           0           0
           0           0           4          52           0           0
           0           1           0           0           0           0
           0           0           0          19           0           1
           0           0           0           0           0           0
           0           0           0           0           0           0
           0           0           0           0           0           0
           0           0           0           0           0           0
           0           0           0           0
Num RLSW                                   I               52
RLSW                                       R   N=          52
  1.00000000E+00  1.00000000E+00  1.00000000E+00  1.00000000E+00  1.00000000E+00
  0.00000000E+00  0.00000000E+00  1.00000000E+00  0.00000000E+00  0.00000000E+00
  0.00000000E+00  0.00000000E+00  1.00000000E+00  0.00000000E+00  0.00000000E+00
  0.00000000E+00  0.00000000E+00  1.00000000E+00  0.00000000E+00  0.00000000E+00
  0.00000000E+00  0.00000000E+00  1.00000000E+00  0.00000000E+00  0.00000000E+00
  0.00000000E+00  0.00000000E+00  1.00000000E+00  0.00000000E+00  0.00000000E+00
  0.00000000E+00  0.00000000E+00  1.00000000E+00  0.00000000E+00  0.00000000E+00
  0.00000000E+00  0.00000000E+00  0.00000000E+00  1.00000000E+00  1.00000000E+00
  0.00000000E+00  1.00000000E+00  0.00000000E+00  0.00000000E+00  0.00000000E+00
  0.00000000E+00  0.00000000E+00  0.00000000E+00  0.00000000E+00  0.00000000E+00
  0.00000000E+00  0.00000000E+00
MxBond                                     I                3
NBond                                      I   N=          19
           3           1           2           3           3           1
           2           3           3           1           2           3
           3           1           1           1           1           1
           1
IBond                                      I   N=          57
           2           3          16           1           0           0
           1           4           0           3           5          13
           4           6           7           5           0           0
           5           8           0           7           9          17
           8          10          11           9           0           0
           9          12           0          11          18          19
           4          14          15          13           0           0
          13           0           0           1           0           0
           8           0           0          12           0           0
          12           0           0
RBond                                      R   N=          57
  2.00000000E+00  1.50000000E+00  1.00000000E+00  2.00000000E+00  0.00000000E+00
  0.00000000E+00  1.50000000E+00  1.00000000E+00  0.00000000E+00  1.00000000E+00
  1.00000000E+00  1.00000000E+00  1.00000000E+00  2.00000000E+00  1.50000000E+00
  2.00000000E+00  0.00000000E+00  0.00000000E+00  1.50000000E+00  1.00000000E+00
  0.00000000E+00  1.00000000E+00  1.00000000E+00  1.00000000E+00  1.00000000E+00
  2.00000000E+00  1.50000000E+00  2.00000000E+00  0.00000000E+00  0.00000000E+00
  1.50000000E+00  1.00000000E+00  0.00000000E+00  1.00000000E+00  1.00000000E+00
  1.00000000E+00  1.00000000E+00  1.00000000E+00  1.00000000E+00  1.00000000E+00
  0.00000000E+00  0.00000000E+00  1.00000000E+00  0.00000000E+00  0.00000000E+00
  1.00000000E+00  0.00000000E+00  0.00000000E+00  1.00000000E+00  0.00000000E+00
  0.00000000E+00  1.00000000E+00  0.00000000E+00  0.00000000E+00  1.00000000E+00
  0.00000000E+00  0.00000000E+00
Virial Ratio                               R      9.852083841513740E-01
SCF Energy                                 R     -2.375383316394391E+00
Total Energy                               R     -2.375383316394391E+00
RMS Density                                R      6.579914943927063E-09
Job Status                                 I                1
Nuclear derivative order                   I                0
External E-field                           R   N=          35
  0.00000000E+00  0.00000000E+00  0.00000000E+00  0.00000000E+00  0.00000000E+00
  0.00000000E+00  0.00000000E+00  0.00000000E+00  0.00000000E+00  0.00000000E+00
  0.00000000E+00  0.00000000E+00  0.00000000E+00  0.00000000E+00  0.00000000E+00
  0.00000000E+00  0.00000000E+00  0.00000000E+00  0.00000000E+00  0.00000000E+00
  0.00000000E+00  0.00000000E+00  0.00000000E+00  0.00000000E+00  0.00000000E+00
  0.00000000E+00  0.00000000E+00  0.00000000E+00  0.00000000E+00  0.00000000E+00
  0.00000000E+00  0.00000000E+00  0.00000000E+00  0.00000000E+00  0.00000000E+00
IOpCl                                      I                0
IROHF                                      I                0
Alpha Orbital Energies                     R   N=          64
 -1.64366262E+00 -1.58816551E+00 -1.57112428E+00 -1.53956468E+00 -1.48771941E+00
 -1.47442927E+00 -1.45695203E+00 -1.42302095E+00 -1.35996834E+00 -1.32270203E+00
 -1.26178622E+00 -1.21212491E+00 -1.15400517E+00 -1.09927777E+00 -1.07643995E+00
 -1.04812675E+00 -1.01601248E+00 -9.98780527E-01 -9.82954616E-01 -9.63325139E-01
 -9.38568967E-01 -9.35404418E-01 -9.18318779E-01 -9.02606316E-01 -8.83218712E-01
 -8.76914294E-01 -8.70284944E-01 -8.52553808E-01 -8.47420300E-01 -8.16290125E-01
 -8.09459868E-01 -7.80455868E-01 -7.52072488E-01 -7.37974629E-01 -7.31768153E-01
 -6.97728126E-01 -6.84430467E-01 -5.61899204E-01 -5.20618252E-01 -4.85415322E-01
 -4.47068945E-01 -4.38936555E-01 -4.35645204E-01 -4.03215679E-01 -3.95040978E-01
 -3.84247552E-01 -3.41448486E-01 -3.33747638E-01 -3.04546701E-01 -2.97403452E-01
 -2.92972703E-01 -2.90240805E-01 -2.79685878E-01 -2.67539880E-01 -2.63458083E-01
 -2.50904177E-01 -2.44733637E-01 -2.37968354E-01 -2.06396547E-01 -1.78365954E-01
 -1.58050571E-01 -1.22267185E-01 -1.00835071E-01  4.97584770E-02
Alpha MO coefficients                      R   N=        4096
 -4.83158337E-04  1.09936968E-04  6.40384589E-06 -2.51105150E-04 -2.68721236E-04
 -2.62719852E-05  2.14116765E-04 -7.44791367E-05 -1.12546739E-03  2.10143758E-04
 -2.39694804E-04 -2.68145935E-04 -6.57173364E-04  3.10626981E-04  7.30412987E-05
  1.09630150E-03  8.25620110E-03  3.92443535E-03  1.52326378E-03  8.06997013E-03
  2.96710969E-03  6.67717685E-04  3.35581385E-03  1.40880742E-03  3.51758860E-02
  4.19703105E-03 -5.08587940E-03  2.20375202E-02  8.31114219E-02 -2.97018615E-02
  3.21904680E-02  5.85206952E-02  4.34374556E-01 -5.72963164E-02  8.40502187E-02
  1.37176229E-01  3.84839600E-01  2.51234320E-02 -2.27217703E-01  1.49053077E-02
  5.32495447E-01 -3.29712326E-03  1.81293460E-01  3.90782089E-02  3.67979931E-01
  1.32057012E-02 -5.35642211E-02 -1.11985546E-01 -4.67123006E-04 -1.21668803E-04
 -9.88657596E-05  2.22025734E-04 -2.65688253E-04 -1.49060285E-04  3.85966784E-05
 -1.40803534E-04 -4.99804980E-05  4.35509832E-05  5.50519801E-06  1.22999484E-04
 -1.04613958E-04  2.07254753E-02  1.42682712E-01  2.78637076E-01  8.24905268E-04
 -1.71291129E-04 -5.41154665E-04  1.96024772E-03 -2.31478785E-04  1.58408200E-05
 -1.57102754E-04  4.18838965E-04  1.05910736E-02 -8.17128739E-04  4.74195201E-04
  8.38849408E-03  3.13808039E-02  1.29493268E-02 -1.18892424E-02  1.81055103E-02
  1.32223726E-01  2.82132922E-02 -1.15304905E-02  3.78073392E-02  8.79393391E-02
  5.53622125E-03  6.45884355E-02  2.06546092E-03  1.86540777E-01 -1.76197934E-03
 -5.20314597E-02  2.06417840E-02  1.28809188E-01 -4.67445594E-02  5.13198842E-02
 -8.77986936E-04  2.60426235E-01 -1.44429406E-02  2.73088116E-01 -7.03516304E-02
  5.51175194E-01  4.12874805E-02 -2.12570803E-01 -3.95977326E-02 -2.50530983E-01
  3.61262798E-02  6.70121157E-03 -1.50210824E-01 -3.79882025E-01  2.40555239E-02
  8.86751527E-02  1.76753310E-02  9.61363528E-03  8.63571138E-03  1.07486609E-03
  4.86291605E-03 -2.67946414E-03  4.74368670E-04  1.95487953E-04  1.00347311E-04
  4.82332193E-03  3.90810851E-03 -1.09853383E-03 -1.56704929E-03 -7.12271073E-05
  3.25185371E-02 -1.60806086E-01 -3.74635743E-01  2.34149169E-02 -4.60593924E-03
  1.36372196E-03  1.54962445E-02  1.57699444E-02  1.92830017E-03 -1.10256724E-02
  3.99382271E-03  7.66597801E-02 -8.03751976E-03  9.26240791E-03  4.08051473E-02
  1.58614582E-01  5.21381454E-02 -5.96508837E-02  6.60364677E-02  5.22819967E-01
  7.52393739E-02 -9.87705750E-02  9.68907237E-02  4.14060492E-01  1.32139688E-02
  2.74386770E-01 -6.75253944E-03  4.83888430E-01 -5.62324032E-02 -1.87713492E-01
 -4.78181758E-02  1.57439160E-01 -7.68860556E-02  4.80173079E-04 -1.05296988E-01
 -4.98468506E-02  1.01781253E-02 -1.11225427E-01 -3.55945165E-02 -2.03153939E-01
 -1.27295370E-02  6.57404635E-02 -2.12522041E-03  5.78335029E-02 -8.53321476E-03
 -9.81303975E-03  2.59025310E-02  8.95889375E-02 -8.79446700E-03 -2.31870549E-02
  1.29119332E-03  5.86040773E-02  4.35935231E-02  7.60734161E-03  2.02206289E-02
 -6.24264296E-03  5.79401011E-03  4.62821001E-05  4.12531250E-03  2.70568493E-02
  1.93947918E-02 -6.00812764E-03 -1.05194861E-02  4.47110147E-03  3.11688085E-02
  3.85771817E-02  9.56659201E-02  5.07725670E-01 -8.54439518E-02  2.22169329E-01
  8.81864388E-02  6.08596216E-01  7.11554943E-02 -3.09405020E-01  3.26195456E-02
  3.47913688E-01 -1.27097178E-02  1.53706040E-01 -5.49102454E-02  1.30058653E-01
  2.59793361E-02 -8.70727508E-04 -9.29675142E-02 -1.46378268E-02 -1.96238977E-02
  1.76541898E-02 -4.17070178E-02 -3.46113288E-02 -4.44262636E-03 -1.60106275E-02
 -8.26783646E-03 -5.06437588E-02 -9.52605615E-04  1.86102527E-02 -7.69176091E-03
 -2.62088011E-02  1.02070381E-02 -2.16155689E-03  1.12285844E-02 -1.31348863E-03
 -1.76281574E-03  1.13464400E-02  7.13806113E-03  1.83404620E-02  7.02158221E-04
 -4.12899006E-03  1.51216108E-03 -3.89054058E-03 -2.48068798E-04  7.51719826E-04
  1.40043062E-03 -2.17665969E-03  3.39993133E-04  8.36229657E-04 -1.45391256E-04
  4.85535665E-02  2.23792005E-02  1.66497404E-02 -1.94037233E-02  3.19191040E-02
  1.80014466E-02 -2.33795971E-03  1.26070867E-02  9.92681483E-03  6.10682070E-03
 -7.94920886E-04 -9.34480790E-03  1.32352157E-01 -5.61452408E-03 -9.51143478E-04
 -2.71289604E-03 -1.46855683E-02  1.35659634E-03 -2.95444055E-02  1.18235838E-02
 -5.09655681E-02 -5.96600884E-03  1.69016798E-02  2.66196980E-03  5.37193497E-02
 -1.16947240E-02  8.98496813E-04  2.26744099E-02  7.19592632E-02 -5.70365837E-03
 -3.13008287E-02 -2.36353920E-03  6.47879601E-02 -4.80041389E-02 -1.17458115E-01
 -4.89497511E-02  1.96110516E-01 -1.45304053E-02  7.26861749E-02 -2.38736481E-02
 -1.72461584E-01 -2.17151608E-02  2.89563069E-02 -4.43683810E-02 -1.92011129E-01
  4.84883979E-02 -1.27460409E-02 -3.79448360E-02 -2.39544319E-01 -9.59524575E-03
  3.17542910E-01 -7.04293380E-02  3.69105094E-01  1.34895834E-02 -4.56310876E-03
 -2.39463172E-02 -4.22305326E-01 -8.32449021E-02 -1.18938555E-01  1.92317326E-01
  2.40094492E-01 -9.98303418E-02 -6.48182199E-02  1.62474304E-01  6.50945846E-02
  1.47447740E-02  1.24699597E-02  1.28600120E-03  3.38319465E-02  1.28231691E-02
 -3.53200175E-03  1.68378416E-02  3.05135476E-02  1.21234162E-02 -5.66089289E-03
 -1.55240926E-02 -4.82852497E-03 -4.34407668E-02  1.22746096E-01  4.30821877E-01
  2.04435928E-02 -7.20047014E-04  7.58412055E-02 -3.46834418E-02  1.21605706E-01
  1.41351211E-02 -3.52850545E-02 -8.40503934E-03 -1.50221548E-01  3.16085562E-02
 -8.81837852E-03 -4.58916338E-02 -1.62246606E-01  3.43350427E-02  7.07341704E-02
  3.06983405E-02 -7.02574325E-02  1.33099619E-01  2.99253074E-01  1.27169102E-01
 -4.47963538E-01  3.91489880E-02 -1.41117109E-01  5.64724598E-02  4.87691697E-01
  2.43918421E-02 -8.00607453E-02  4.02300555E-02  2.13775893E-01 -7.20244625E-02
  5.10436894E-02 -1.18485370E-01 -5.95282427E-02  2.17082491E-02  6.97188855E-02
 -1.37207974E-01  4.80156516E-02  7.69954002E-03  1.11970325E-02 -4.12378241E-02
 -2.07861281E-01 -3.59127429E-02 -6.96579808E-02  6.45877503E-02  1.20743788E-01
 -5.94865655E-02 -3.67486057E-02  9.64928496E-02 -1.86627051E-01 -2.15125251E-02
 -3.96578358E-02  9.21391008E-03 -1.32800503E-01 -4.05088349E-02  1.23794824E-02
 -5.65013487E-02 -8.84592458E-02 -3.05794267E-02  1.56063090E-02  4.68655680E-02
  7.31993998E-03  5.15703685E-02  6.32058846E-02  2.40357794E-01 -1.26236413E-02
  2.00490009E-04 -1.67630226E-01  8.47868871E-02 -2.56535592E-01 -2.82387486E-02
  6.34053299E-02  2.16739556E-02  3.17365068E-01 -5.31387927E-02  5.14555435E-02
  5.91198196E-02  3.17598258E-01 -5.50988179E-02 -3.73869441E-02 -5.81905507E-02
  8.83473264E-03 -2.46243633E-02  2.33937500E-01 -5.46006430E-02 -3.48994820E-01
 -5.64657697E-03 -9.23292455E-02 -8.29878332E-04  1.58432546E-01 -1.57988976E-02
 -4.50894985E-03 -1.65391281E-02  5.18995442E-02 -1.75894519E-02  1.64694061E-02
 -2.13380984E-02  4.13685820E-03  4.70516728E-03 -4.25996184E-03 -2.31509532E-02
 -1.18274132E-02  7.65189170E-04  1.33276346E-03 -7.15053225E-03 -1.52166265E-02
 -2.01203751E-03 -6.24895677E-03  9.62692205E-04  9.14801813E-03 -5.71216443E-03
 -3.22703473E-03  9.12423809E-03  4.02097196E-01 -2.67238390E-02  1.19873106E-01
 -6.17296883E-02  4.27176885E-01  9.87890103E-02 -3.16796185E-02  1.53012864E-01
  2.03127470E-01  5.82056826E-02 -2.69034351E-02 -1.11396093E-01 -6.11851558E-03
  1.26120083E-02  4.93383981E-03  2.12235489E-02 -9.25993806E-02 -7.04587918E-03
  2.50576340E-01 -1.42537102E-01  3.28822238E-01  2.71619057E-02 -4.39666471E-02
 -3.92026099E-02 -5.11695828E-01  3.74965735E-03 -9.85144496E-02 -4.70088565E-03
 -1.72662512E-01 -1.43063139E-01  2.70492426E-02  1.12870111E-01 -3.42998774E-02
  1.09029179E-02 -7.01681372E-02  7.12195772E-02  9.76509538E-02  2.96033894E-03
  1.64797086E-02  1.85690051E-02  1.04946514E-02  1.73550688E-02 -1.04758135E-02
  3.69413325E-02  3.81246525E-02 -9.14808196E-03  4.72855062E-03 -6.12616310E-03
  6.66129649E-03  4.82518810E-03 -3.82473543E-03 -1.84874819E-02 -7.56787304E-03
  1.41886418E-03 -3.35593434E-04 -5.90068951E-03 -1.46813816E-02 -7.90060407E-04