Atom number=23                                                          
SP        RPM6                                                        ZDO                 
Number of atoms                            I               23
Info1-9                                    I   N=           9
          78          77           0           0           0         111
           1           8        2302
Full Title                                 C   N=           2
Atom number=23          
Route                                      C   N=           9
#p int=acc2e=12 pm6 charge nosymm int=acc2e=12 scf=(noincfoc
k,novaracc,fermi,maxcycle=128,ndamp=64,xqc)     
Charge                                     I                6
Multiplicity                               I                1
Number of electrons                        I               98
Number of alpha electrons                  I               49
Number of beta electrons                   I               49
Number of basis functions                  I               89
Number of independent functions            I               89
Number of point charges in /Mol/           I                0
Number of translation vectors              I                0
Atomic numbers                             I   N=          23
           6           8           7           6           6           8
           7           6           6           8           7           6
           6           8           6           6           6           6
           6           8           8           6           1
Nuclear charges                            R   N=          23
  4.00000000E+00  6.00000000E+00  5.00000000E+00  4.00000000E+00  4.00000000E+00
  6.00000000E+00  5.00000000E+00  4.00000000E+00  4.00000000E+00  6.00000000E+00
  5.00000000E+00  4.00000000E+00  4.00000000E+00  6.00000000E+00  4.00000000E+00
  4.00000000E+00  4.00000000E+00  4.00000000E+00  4.00000000E+00  6.00000000E+00
  6.00000000E+00  4.00000000E+00  1.00000000E+00
Current cartesian coordinates              R   N=          69
  6.47042229E+00  1.82356233E+00  3.33177433E+01  5.92618759E+00  3.98732110E+00
  3.32818450E+01  5.99611037E+00  2.43768982E-01  3.52377220E+01  4.83581805E+00
  9.75114686E-01  3.76112468E+01  6.33055986E+00 -2.30556300E-01  3.97107163E+01
  6.36082101E+00 -2.53036312E+00  3.99488078E+01  7.68551460E+00  1.30011814E+00
  4.11355373E+01  9.23698937E+00  3.87386977E-01  4.31821289E+01  8.22031928E+00
  1.45321912E+00  4.56822221E+01  7.86317236E+00  3.74357546E+00  4.58617493E+01
  7.68175280E+00 -2.26734953E-01  4.75284848E+01  7.02979407E+00  5.91495011E-01
  5.01061053E+01  2.15047670E+00 -3.96883682E-02  3.77624215E+01  7.42660628E-01
  7.44574165E-01  3.55722016E+01  9.18403760E-01  9.46757758E-01  3.99998346E+01
  1.20224594E+01  1.16027602E+00  4.28060807E+01  1.35153062E+01  5.61269881E-01
  4.51153061E+01  1.31392699E+01 -2.28654877E-01  4.05440725E+01  9.33711233E+00
  2.64545651E-01  5.18163197E+01  1.07978964E+01 -1.52877492E+00  5.15649609E+01
  9.92104709E+00  1.80470687E+00  5.34679223E+01  4.72242976E+00 -7.97467788E-01
  5.11397568E+01  7.45825884E+00  1.05763253E+00  3.17283904E+01
Number of symbols in /Mol/                 I                0
Int Atom Types                             I   N=          23
           0           0           0           0           0           0
           0           0           0           0           0           0
           0           0           0           0           0           0
           0           0           0           0           0
Force Field                                I                0
Atom Types                                 C   N=          23
                                                            
                                                            
                                                            
                                                            
                                    
MM charges                                 R   N=          23
  0.00000000E+00  0.00000000E+00  0.00000000E+00  0.00000000E+00  0.00000000E+00
  0.00000000E+00  0.00000000E+00  0.00000000E+00  0.00000000E+00  0.00000000E+00
  0.00000000E+00  0.00000000E+00  0.00000000E+00  0.00000000E+00  0.00000000E+00
  0.00000000E+00  0.00000000E+00  0.00000000E+00  0.00000000E+00  0.00000000E+00
  0.00000000E+00  0.00000000E+00  0.00000000E+00
Integer atomic weights                     I   N=          23
          12          16          14          12          12          16
          14          12          12          16          14          12
          12          16          12          12          12          12
          12          16          16          12           1
Real atomic weights                        R   N=          23
  1.20000000E+01  1.59949146E+01  1.40030740E+01  1.20000000E+01  1.20000000E+01
  1.59949146E+01  1.40030740E+01  1.20000000E+01  1.20000000E+01  1.59949146E+01
  1.40030740E+01  1.20000000E+01  1.20000000E+01  1.59949146E+01  1.20000000E+01
  1.20000000E+01  1.20000000E+01  1.20000000E+01  1.20000000E+01  1.59949146E+01
  1.59949146E+01  1.20000000E+01  1.00782504E+00
Atom fragment info                         I   N=          23
           0           0           0           0           0           0
           0           0           0           0           0           0
           0           0           0           0           0           0
           0           0           0           0           0
Atom residue num                           I   N=          23
           0           0           0           0           0           0
           0           0           0           0           0           0
           0           0           0           0           0           0
           0           0           0           0           0
Nuclear spins                              I   N=          23
           0           0           2           0           0           0
           2           0           0           0           2           0
           0           0           0           0           0           0
           0           0           0           0           1
Nuclear ZEff                               R   N=          23
 -3.90000000E+00 -6.00000000E+00 -4.90000000E+00 -3.90000000E+00 -3.90000000E+00
 -6.00000000E+00 -4.90000000E+00 -3.90000000E+00 -3.90000000E+00 -6.00000000E+00
 -4.90000000E+00 -3.90000000E+00 -3.90000000E+00 -6.00000000E+00 -3.90000000E+00
 -3.90000000E+00 -3.90000000E+00 -3.90000000E+00 -3.90000000E+00 -6.00000000E+00
 -6.00000000E+00 -3.90000000E+00 -1.00000000E+00
Nuclear ZNuc                               R   N=          23
  6.00000000E+00  8.00000000E+00  7.00000000E+00  6.00000000E+00  6.00000000E+00
  8.00000000E+00  7.00000000E+00  6.00000000E+00  6.00000000E+00  8.00000000E+00
  7.00000000E+00  6.00000000E+00  6.00000000E+00  8.00000000E+00  6.00000000E+00
  6.00000000E+00  6.00000000E+00  6.00000000E+00  6.00000000E+00  8.00000000E+00
  8.00000000E+00  6.00000000E+00  1.00000000E+00
Nuclear QMom                               R   N=          23
  0.00000000E+00  0.00000000E+00  2.04400000E+00  0.00000000E+00  0.00000000E+00
  0.00000000E+00  2.04400000E+00  0.00000000E+00  0.00000000E+00  0.00000000E+00
  2.04400000E+00  0.00000000E+00  0.00000000E+00  0.00000000E+00  0.00000000E+00
  0.00000000E+00  0.00000000E+00  0.00000000E+00  0.00000000E+00  0.00000000E+00
  0.00000000E+00  0.00000000E+00  0.00000000E+00
Nuclear GFac                               R   N=          23
  0.00000000E+00  0.00000000E+00  4.03761000E-01  0.00000000E+00  0.00000000E+00
  0.00000000E+00  4.03761000E-01  0.00000000E+00  0.00000000E+00  0.00000000E+00
  4.03761000E-01  0.00000000E+00  0.00000000E+00  0.00000000E+00  0.00000000E+00
  0.00000000E+00  0.00000000E+00  0.00000000E+00  0.00000000E+00  0.00000000E+00
  0.00000000E+00  0.00000000E+00  2.79284600E+00
MicOpt                                     I   N=          23
          -1          -1          -1          -1          -1          -1
          -1          -1          -1          -1          -1          -1
          -1          -1          -1          -1          -1          -1
          -1          -1          -1          -1          -1
Number of residues                         I                0
Number of secondary structures             I                0
Number of contracted shells                I               23
Number of primitive shells                 I              138
Pure/Cartesian d shells                    I                0
Pure/Cartesian f shells                    I                0
Highest angular momentum                   I                1
Largest degree of contraction              I                6
Shell types                                I   N=          23
          -1          -1          -1          -1          -1          -1
          -1          -1          -1          -1          -1          -1
          -1          -1          -1          -1          -1          -1
          -1          -1          -1          -1           0
Number of primitives per shell             I   N=          23
           6           6           6           6           6           6
           6           6           6           6           6           6
           6           6           6           6           6           6
           6           6           6           6           6
Shell to atom map                          I   N=          23
           1           2           3           4           5           6
           7           8           9          10          11          12
          13          14          15          16          17          18
          19          20          21          22          23
Primitive exponents                        R   N=         138
  1.14476344E+01  3.29633588E+00  1.29653143E+00  5.92558930E-01  2.94896438E-01
  1.51447622E-01  8.02643074E+01  2.31120341E+01  9.09054165E+00  4.15468650E+00
  2.06764625E+00  1.06186467E+00  1.54719623E+01  4.45513742E+00  1.75231709E+00
  8.00868468E-01  3.98565014E-01  2.04687870E-01  1.14476344E+01  3.29633588E+00
  1.29653143E+00  5.92558930E-01  2.94896438E-01  1.51447622E-01  1.14476344E+01
  3.29633588E+00  1.29653143E+00  5.92558930E-01  2.94896438E-01  1.51447622E-01
  8.02643074E+01  2.31120341E+01  9.09054165E+00  4.15468650E+00  2.06764625E+00
  1.06186467E+00  1.54719623E+01  4.45513742E+00  1.75231709E+00  8.00868468E-01
  3.98565014E-01  2.04687870E-01  1.14476344E+01  3.29633588E+00  1.29653143E+00
  5.92558930E-01  2.94896438E-01  1.51447622E-01  1.14476344E+01  3.29633588E+00
  1.29653143E+00  5.92558930E-01  2.94896438E-01  1.51447622E-01  8.02643074E+01
  2.31120341E+01  9.09054165E+00  4.15468650E+00  2.06764625E+00  1.06186467E+00
  1.54719623E+01  4.45513742E+00  1.75231709E+00  8.00868468E-01  3.98565014E-01
  2.04687870E-01  1.14476344E+01  3.29633588E+00  1.29653143E+00  5.92558930E-01
  2.94896438E-01  1.51447622E-01  1.14476344E+01  3.29633588E+00  1.29653143E+00
  5.92558930E-01  2.94896438E-01  1.51447622E-01  8.02643074E+01  2.31120341E+01
  9.09054165E+00  4.15468650E+00  2.06764625E+00  1.06186467E+00  1.14476344E+01
  3.29633588E+00  1.29653143E+00  5.92558930E-01  2.94896438E-01  1.51447622E-01
  1.14476344E+01  3.29633588E+00  1.29653143E+00  5.92558930E-01  2.94896438E-01
  1.51447622E-01  1.14476344E+01  3.29633588E+00  1.29653143E+00  5.92558930E-01
  2.94896438E-01  1.51447622E-01  1.14476344E+01  3.29633588E+00  1.29653143E+00
  5.92558930E-01  2.94896438E-01  1.51447622E-01  1.14476344E+01  3.29633588E+00
  1.29653143E+00  5.92558930E-01  2.94896438E-01  1.51447622E-01  8.02643074E+01
  2.31120341E+01  9.09054165E+00  4.15468650E+00  2.06764625E+00  1.06186467E+00
  8.02643074E+01  2.31120341E+01  9.09054165E+00  4.15468650E+00  2.06764625E+00
  1.06186467E+00  1.14476344E+01  3.29633588E+00  1.29653143E+00  5.92558930E-01
  2.94896438E-01  1.51447622E-01  4.39461478E+00  1.26542531E+00  4.97723458E-01
  2.27476537E-01  1.13207340E-01  5.81389949E-02
Contraction coefficients                   R   N=         138
 -9.73739553E-03 -7.26587678E-02 -1.71615520E-01  1.28977624E-01  7.28861451E-01
  3.01331742E-01 -9.73739553E-03 -7.26587678E-02 -1.71615520E-01  1.28977624E-01
  7.28861451E-01  3.01331742E-01 -9.73739553E-03 -7.26587678E-02 -1.71615520E-01
  1.28977624E-01  7.28861451E-01  3.01331742E-01 -9.73739553E-03 -7.26587678E-02
 -1.71615520E-01  1.28977624E-01  7.28861451E-01  3.01331742E-01 -9.73739553E-03
 -7.26587678E-02 -1.71615520E-01  1.28977624E-01  7.28861451E-01  3.01331742E-01
 -9.73739553E-03 -7.26587678E-02 -1.71615520E-01  1.28977624E-01  7.28861451E-01
  3.01331742E-01 -9.73739553E-03 -7.26587678E-02 -1.71615520E-01  1.28977624E-01
  7.28861451E-01  3.01331742E-01 -9.73739553E-03 -7.26587678E-02 -1.71615520E-01
  1.28977624E-01  7.28861451E-01  3.01331742E-01 -9.73739553E-03 -7.26587678E-02
 -1.71615520E-01  1.28977624E-01  7.28861451E-01  3.01331742E-01 -9.73739553E-03
 -7.26587678E-02 -1.71615520E-01  1.28977624E-01  7.28861451E-01  3.01331742E-01
 -9.73739553E-03 -7.26587678E-02 -1.71615520E-01  1.28977624E-01  7.28861451E-01
  3.01331742E-01 -9.73739553E-03 -7.26587678E-02 -1.71615520E-01  1.28977624E-01
  7.28861451E-01  3.01331742E-01 -9.73739553E-03 -7.26587678E-02 -1.71615520E-01
  1.28977624E-01  7.28861451E-01  3.01331742E-01 -9.73739553E-03 -7.26587678E-02
 -1.71615520E-01  1.28977624E-01  7.28861451E-01  3.01331742E-01 -9.73739553E-03
 -7.26587678E-02 -1.71615520E-01  1.28977624E-01  7.28861451E-01  3.01331742E-01
 -9.73739553E-03 -7.26587678E-02 -1.71615520E-01  1.28977624E-01  7.28861451E-01
  3.01331742E-01 -9.73739553E-03 -7.26587678E-02 -1.71615520E-01  1.28977624E-01
  7.28861451E-01  3.01331742E-01 -9.73739553E-03 -7.26587678E-02 -1.71615520E-01
  1.28977624E-01  7.28861451E-01  3.01331742E-01 -9.73739553E-03 -7.26587678E-02
 -1.71615520E-01  1.28977624E-01  7.28861451E-01  3.01331742E-01 -9.73739553E-03
 -7.26587678E-02 -1.71615520E-01  1.28977624E-01  7.28861451E-01  3.01331742E-01
 -9.73739553E-03 -7.26587678E-02 -1.71615520E-01  1.28977624E-01  7.28861451E-01
  3.01331742E-01 -9.73739553E-03 -7.26587678E-02 -1.71615520E-01  1.28977624E-01
  7.28861451E-01  3.01331742E-01 -9.73739553E-03 -7.26587678E-02 -1.71615520E-01
  1.28977624E-01  7.28861451E-01  3.01331742E-01
P(S=P) Contraction coefficients            R   N=         138
 -8.10494336E-03 -1.71547892E-02  7.36978576E-02  3.96514999E-01  4.97808488E-01
  1.17482582E-01 -8.10494336E-03 -1.71547892E-02  7.36978576E-02  3.96514999E-01
  4.97808488E-01  1.17482582E-01 -8.10494336E-03 -1.71547892E-02  7.36978576E-02
  3.96514999E-01  4.97808488E-01  1.17482582E-01 -8.10494336E-03 -1.71547892E-02
  7.36978576E-02  3.96514999E-01  4.97808488E-01  1.17482582E-01 -8.10494336E-03
 -1.71547892E-02  7.36978576E-02  3.96514999E-01  4.97808488E-01  1.17482582E-01
 -8.10494336E-03 -1.71547892E-02  7.36978576E-02  3.96514999E-01  4.97808488E-01
  1.17482582E-01 -8.10494336E-03 -1.71547892E-02  7.36978576E-02  3.96514999E-01
  4.97808488E-01  1.17482582E-01 -8.10494336E-03 -1.71547892E-02  7.36978576E-02
  3.96514999E-01  4.97808488E-01  1.17482582E-01 -8.10494336E-03 -1.71547892E-02
  7.36978576E-02  3.96514999E-01  4.97808488E-01  1.17482582E-01 -8.10494336E-03
 -1.71547892E-02  7.36978576E-02  3.96514999E-01  4.97808488E-01  1.17482582E-01
 -8.10494336E-03 -1.71547892E-02  7.36978576E-02  3.96514999E-01  4.97808488E-01
  1.17482582E-01 -8.10494336E-03 -1.71547892E-02  7.36978576E-02  3.96514999E-01
  4.97808488E-01  1.17482582E-01 -8.10494336E-03 -1.71547892E-02  7.36978576E-02
  3.96514999E-01  4.97808488E-01  1.17482582E-01 -8.10494336E-03 -1.71547892E-02
  7.36978576E-02  3.96514999E-01  4.97808488E-01  1.17482582E-01 -8.10494336E-03
 -1.71547892E-02  7.36978576E-02  3.96514999E-01  4.97808488E-01  1.17482582E-01
 -8.10494336E-03 -1.71547892E-02  7.36978576E-02  3.96514999E-01  4.97808488E-01
  1.17482582E-01 -8.10494336E-03 -1.71547892E-02  7.36978576E-02  3.96514999E-01
  4.97808488E-01  1.17482582E-01 -8.10494336E-03 -1.71547892E-02  7.36978576E-02
  3.96514999E-01  4.97808488E-01  1.17482582E-01 -8.10494336E-03 -1.71547892E-02
  7.36978576E-02  3.96514999E-01  4.97808488E-01  1.17482582E-01 -8.10494336E-03
 -1.71547892E-02  7.36978576E-02  3.96514999E-01  4.97808488E-01  1.17482582E-01
 -8.10494336E-03 -1.71547892E-02  7.36978576E-02  3.96514999E-01  4.97808488E-01
  1.17482582E-01 -8.10494336E-03 -1.71547892E-02  7.36978576E-02  3.96514999E-01
  4.97808488E-01  1.17482582E-01  0.00000000E+00  0.00000000E+00  0.00000000E+00
  0.00000000E+00  0.00000000E+00  0.00000000E+00
Coordinates of each shell                  R   N=          69
  6.47042229E+00  1.82356233E+00  3.33177433E+01  5.92618759E+00  3.98732110E+00
  3.32818450E+01  5.99611037E+00  2.43768982E-01  3.52377220E+01  4.83581805E+00
  9.75114686E-01  3.76112468E+01  6.33055986E+00 -2.30556300E-01  3.97107163E+01
  6.36082101E+00 -2.53036312E+00  3.99488078E+01  7.68551460E+00  1.30011814E+00
  4.11355373E+01  9.23698937E+00  3.87386977E-01  4.31821289E+01  8.22031928E+00
  1.45321912E+00  4.56822221E+01  7.86317236E+00  3.74357546E+00  4.58617493E+01
  7.68175280E+00 -2.26734953E-01  4.75284848E+01  7.02979407E+00  5.91495011E-01
  5.01061053E+01  2.15047670E+00 -3.96883682E-02  3.77624215E+01  7.42660628E-01
  7.44574165E-01  3.55722016E+01  9.18403760E-01  9.46757758E-01  3.99998346E+01
  1.20224594E+01  1.16027602E+00  4.28060807E+01  1.35153062E+01  5.61269881E-01
  4.51153061E+01  1.31392699E+01 -2.28654877E-01  4.05440725E+01  9.33711233E+00
  2.64545651E-01  5.18163197E+01  1.07978964E+01 -1.52877492E+00  5.15649609E+01
  9.92104709E+00  1.80470687E+00  5.34679223E+01  4.72242976E+00 -7.97467788E-01
  5.11397568E+01  7.45825884E+00  1.05763253E+00  3.17283904E+01
Num ILSW                                   I              100
ILSW                                       I   N=         100
           0           0           0           0           2           0
           0           0           0           0           0          -1
           5           0           0           0           0           0
           0           0           0           0           0           0
           1           1           0           0           0           0
           0           0      100000           0          -1           0
           0           0           0           0           0           0
           0           0           0          40           0           0
           0 -2000000000           1           0           0           0
           0           0           4          52           0           0
           0           1           0           0           0           0
           0           0           0          23           0           1
           0           0           0           0           0           0
           0           0           0           0           0           0
           0           0           0           0           0           0
           0           0           0           0           0           0
           0           0           0           0
Num RLSW                                   I               52
RLSW                                       R   N=          52
  1.00000000E+00  1.00000000E+00  1.00000000E+00  1.00000000E+00  1.00000000E+00
  0.00000000E+00  0.00000000E+00  1.00000000E+00  0.00000000E+00  0.00000000E+00
  0.00000000E+00  0.00000000E+00  1.00000000E+00  0.00000000E+00  0.00000000E+00
  0.00000000E+00  0.00000000E+00  1.00000000E+00  0.00000000E+00  0.00000000E+00
  0.00000000E+00  0.00000000E+00  1.00000000E+00  0.00000000E+00  0.00000000E+00
  0.00000000E+00  0.00000000E+00  1.00000000E+00  0.00000000E+00  0.00000000E+00
  0.00000000E+00  0.00000000E+00  1.00000000E+00  0.00000000E+00  0.00000000E+00
  0.00000000E+00  0.00000000E+00  0.00000000E+00  1.00000000E+00  1.00000000E+00
  0.00000000E+00  1.00000000E+00  0.00000000E+00  0.00000000E+00  0.00000000E+00
  0.00000000E+00  0.00000000E+00  0.00000000E+00  0.00000000E+00  0.00000000E+00
  0.00000000E+00  0.00000000E+00
MxBond                                     I                3
NBond                                      I   N=          23
           3           1           2           3           3           1
           2           3           3           1           2           3
           3           1           1           3           1           1
           3           1           1           1           1
IBond                                      I   N=          69
           2           3          23           1           0           0
           1           4           0           3           5          13
           4           6           7           5           0           0
           5           8           0           7           9          16
           8          10          11           9           0           0
           9          12           0          11          19          22
           4          14          15          13           0           0
          13           0           0           8          17          18
          16           0           0          16           0           0
          12          20          21          19           0           0
          19           0           0          12           0           0
           1           0           0
RBond                                      R   N=          69
  2.00000000E+00  1.50000000E+00  1.00000000E+00  2.00000000E+00  0.00000000E+00
  0.00000000E+00  1.50000000E+00  1.00000000E+00  0.00000000E+00  1.00000000E+00
  1.00000000E+00  1.00000000E+00  1.00000000E+00  2.00000000E+00  1.50000000E+00
  2.00000000E+00  0.00000000E+00  0.00000000E+00  1.50000000E+00  1.00000000E+00
  0.00000000E+00  1.00000000E+00  1.00000000E+00  1.00000000E+00  1.00000000E+00
  2.00000000E+00  1.50000000E+00  2.00000000E+00  0.00000000E+00  0.00000000E+00
  1.50000000E+00  1.00000000E+00  0.00000000E+00  1.00000000E+00  1.00000000E+00
  1.00000000E+00  1.00000000E+00  1.00000000E+00  1.00000000E+00  1.00000000E+00
  0.00000000E+00  0.00000000E+00  1.00000000E+00  0.00000000E+00  0.00000000E+00
  1.00000000E+00  1.00000000E+00  1.00000000E+00  1.00000000E+00  0.00000000E+00
  0.00000000E+00  1.00000000E+00  0.00000000E+00  0.00000000E+00  1.00000000E+00
  2.00000000E+00  2.00000000E+00  2.00000000E+00  0.00000000E+00  0.00000000E+00
  2.00000000E+00  0.00000000E+00  0.00000000E+00  1.00000000E+00  0.00000000E+00
  0.00000000E+00  1.00000000E+00  0.00000000E+00  0.00000000E+00
Virial Ratio                               R      1.009818929965766E+00
SCF Energy                                 R      2.151750185455853E+00
Total Energy                               R      2.151750185455853E+00
RMS Density                                R      1.255368383396659E-09
Job Status                                 I                1
Nuclear derivative order                   I                0
External E-field                           R   N=          35
  0.00000000E+00  0.00000000E+00  0.00000000E+00  0.00000000E+00  0.00000000E+00
  0.00000000E+00  0.00000000E+00  0.00000000E+00  0.00000000E+00  0.00000000E+00
  0.00000000E+00  0.00000000E+00  0.00000000E+00  0.00000000E+00  0.00000000E+00
  0.00000000E+00  0.00000000E+00  0.00000000E+00  0.00000000E+00  0.00000000E+00
  0.00000000E+00  0.00000000E+00  0.00000000E+00  0.00000000E+00  0.00000000E+00
  0.00000000E+00  0.00000000E+00  0.00000000E+00  0.00000000E+00  0.00000000E+00
  0.00000000E+00  0.00000000E+00  0.00000000E+00  0.00000000E+00  0.00000000E+00
IOpCl                                      I                0
IROHF                                      I                0
Alpha Orbital Energies                     R   N=          89
 -2.06652740E+00 -2.03948327E+00 -1.97847911E+00 -1.97622138E+00 -1.95884214E+00
 -1.92619234E+00 -1.88057812E+00 -1.87823993E+00 -1.87265285E+00 -1.80268023E+00
 -1.77212632E+00 -1.73974146E+00 -1.70424753E+00 -1.65199684E+00 -1.60106810E+00
 -1.57620179E+00 -1.53096906E+00 -1.51692970E+00 -1.48966882E+00 -1.44783169E+00
 -1.42484360E+00 -1.40759277E+00 -1.39280013E+00 -1.38874088E+00 -1.37580331E+00
 -1.36756461E+00 -1.36506579E+00 -1.35934589E+00 -1.35469299E+00 -1.33085659E+00
 -1.30908870E+00 -1.30316776E+00 -1.28316828E+00 -1.27578686E+00 -1.26245824E+00
 -1.25127033E+00 -1.22785318E+00 -1.22233823E+00 -1.21232497E+00 -1.18428560E+00
 -1.17839204E+00 -1.17761429E+00 -1.17609656E+00 -1.16038368E+00 -1.14276174E+00
 -1.13983409E+00 -1.12710390E+00 -1.11859854E+00 -1.11295250E+00 -9.50284071E-01
 -9.42496708E-01 -8.98027831E-01 -8.84420409E-01 -8.52413844E-01 -8.28801513E-01
 -8.25654025E-01 -8.04591856E-01 -7.88679680E-01 -7.83168065E-01 -7.78093512E-01
 -7.69288486E-01 -7.62065440E-01 -7.55245050E-01 -7.53201783E-01 -7.43047523E-01
 -7.37039104E-01 -7.28724934E-01 -7.22984704E-01 -7.12507058E-01 -7.09168075E-01
 -7.07163784E-01 -7.00821242E-01 -6.88960895E-01 -6.83157782E-01 -6.81522206E-01
 -6.62545198E-01 -6.60318011E-01 -6.51362647E-01 -6.47879794E-01 -6.46136640E-01
 -6.40594410E-01 -6.30875893E-01 -6.18572977E-01 -6.11504389E-01 -6.09832335E-01
 -6.04538928E-01 -5.93385594E-01 -5.76576585E-01 -5.47874383E-01
Alpha MO coefficients                      R   N=        7921
  4.50290732E-01 -9.32600794E-02  2.79833882E-01  5.89315273E-02  7.34422318E-01
  6.38616994E-02 -2.87574940E-01  2.69673935E-02  2.05920184E-01 -1.02608358E-02
  1.22954347E-01 -4.80098767E-02  7.08158166E-02  1.92577192E-02  5.18906128E-03
 -5.69259322E-02  9.35034916E-03 -2.85410283E-03  5.47953170E-03 -1.24722302E-02
 -1.67201006E-03 -6.66266709E-04  1.23396003E-03 -2.61961326E-03  6.13465112E-04
 -1.05136228E-03  2.77578942E-04 -3.23684481E-03 -1.41601020E-03  4.49635937E-04
 -2.10932028E-04  1.59488660E-04 -7.95042065E-04 -1.51454418E-05 -1.57760867E-05
  3.14682744E-04 -3.93983848E-04 -5.45110800E-05  3.15759834E-04  1.16941193E-04
 -2.68830054E-04 -3.89766885E-05 -1.21619730E-04  1.64192462E-04 -2.12694395E-05
 -8.52196104E-06 -1.01392844E-05  5.05080395E-05  1.65786468E-02  1.26234707E-02
  7.02803567E-03 -9.69264032E-03  8.92501862E-03  7.36969687E-03 -1.96260858E-04
  3.19509227E-03  1.03400831E-03  1.79715400E-03  2.26647801E-04 -2.29511557E-03
 -3.25749102E-04  2.81991470E-04  6.27753643E-05 -3.59089849E-05 -7.18418170E-05
  7.16801652E-05 -4.89516855E-06  4.01108143E-05 -6.76957637E-05  4.60848712E-05
 -1.03356898E-05 -6.05951202E-05  2.60269227E-05  7.67987564E-06  3.84817085E-06
  1.75000292E-05  1.57684174E-05 -5.36667723E-06  8.78330011E-06  4.66922936E-06
  4.00115600E-05 -3.90864486E-06 -1.18769022E-05 -1.04238158E-05  4.90888355E-06
  1.79935305E-06 -8.86179870E-07  2.83972219E-06  1.01270328E-01 -2.04207559E-05
  3.90304567E-06 -1.73231716E-05 -6.87359868E-06 -4.14076737E-05 -3.69987893E-06
  1.44079680E-05 -2.05552331E-06 -3.59884008E-05 -1.70387345E-06 -4.26971988E-06
 -3.46179054E-05 -1.46458576E-04 -8.00997924E-05  5.48837342E-05 -1.14232618E-04
 -8.62442667E-04 -2.60093883E-04 -3.75963433E-07 -3.75920233E-04 -4.76619469E-04
 -5.31724330E-05 -3.82183590E-04 -5.55468537E-05 -1.66745633E-03 -8.45072223E-05
  4.65912991E-04 -4.76805854E-04 -1.95634354E-03  7.23479392E-04 -3.81881687E-04
 -2.76616394E-04 -1.47310024E-03  1.31593794E-03 -2.59339028E-04  3.42868334E-03
 -1.33507652E-03  3.23463822E-04  7.71268724E-04  6.91830867E-04  8.06235403E-03
  6.22882796E-03  1.98462041E-03  1.32668191E-02  6.84867408E-02  6.17161740E-02
 -3.67306905E-03  5.28532606E-02 -2.98300315E-05 -4.02082209E-05 -2.42013512E-06
 -2.73506958E-05  2.28687364E-05  2.10785492E-06 -1.95114684E-06  4.73651705E-06
 -1.80005001E-05 -1.82585926E-05  4.00238036E-06  2.79244990E-06 -3.89851039E-04
  3.42457384E-04  5.73259215E-05 -4.06821760E-05 -1.63621449E-05 -1.54509113E-05
  3.68526555E-06  2.23386456E-04 -7.86001308E-05  6.85766192E-05 -2.83667243E-05
 -5.77891197E-05  4.76536142E-01  1.58226998E-01  8.28121119E-02  1.87117501E-01
  3.15606213E-01 -9.83524292E-02  1.71787174E-01  5.58161315E-02  6.90507964E-01
 -4.94910609E-02 -1.93070778E-01 -1.88522731E-01  1.13740706E-02  1.59418562E-02
  4.66543910E-03  2.94670306E-03 -3.42506223E-06  1.51787999E-02 -3.37464870E-03
 -4.20879930E-02  3.50827300E-02 -6.04883303E-02 -5.37882151E-03  6.53129898E-03
  8.51087106E-03  1.46009201E-01 -1.99922344E-02  2.10997842E-02  5.68818221E-02
  2.20430166E-01  5.36900392E-02 -7.44152934E-02  4.93330591E-02  5.23128338E-01
  5.30120319E-02 -1.17375558E-01  6.94069345E-02  4.45052416E-01  7.55574302E-03
  2.71276528E-01 -1.55969354E-02  4.20659455E-01 -5.63417358E-02 -1.71337296E-01
 -3.69268099E-02  1.72134987E-01 -7.45589667E-02  2.02211458E-02 -6.68326875E-02
  1.32593117E-01 -9.14167270E-03  2.37156710E-02 -1.39836276E-02  1.08142231E-01
  8.48337333E-03 -6.42114414E-02 -8.89563574E-03  8.34073962E-02  5.65812090E-03
  3.21708566E-02 -1.20494889E-02  3.33426530E-02  1.18894078E-02 -8.66624370E-03
 -1.91242549E-02  9.12152734E-02  5.68632050E-02  1.59738040E-02  1.65311219E-02
  7.82842080E-03  1.35290672E-02 -1.58406483E-03  1.11778598E-02  3.75013767E-02
  2.41790124E-02 -7.28396571E-03 -1.69041212E-02  3.46569229E-02 -3.48151886E-02
 -8.04282870E-03 -4.29362868E-03  4.40128374E-03 -6.69400248E-03  2.67023903E-04
 -3.09799397E-03  1.18164465E-02 -1.08523900E-02  2.67178751E-03  5.13467122E-03
  3.61138854E-02  2.10214452E-02 -6.21643808E-02 -3.56643666E-02  1.17834379E-01
 -2.88323476E-02  2.75564574E-02 -2.51764826E-03 -7.53420658E-02  9.49795396E-03
 -2.46150898E-04  6.40554683E-03  6.82543335E-03  5.50769416E-03  1.42098071E-03
 -3.64424205E-03  1.57978149E-03 -4.25898997E-03  9.15354222E-04  1.13789317E-02
 -9.30763626E-03  1.62975929E-02  1.44229031E-03 -1.69021069E-03 -2.26990213E-03
 -3.83139770E-02  5.27868614E-03 -5.75748741E-03 -1.40590019E-02 -5.50571361E-02