 Entering Gaussian System, Link 0=g16
 Input=NCCONCCOCCCNCCOCCCNCCOCCNCCNNCCONCCOCCCNCCOCOCNCCOCOCNCCOCCCNCCOCO_11.gjf
 Output=NCCONCCOCCCNCCOCCCNCCOCCNCCNNCCONCCOCCCNCCOCOCNCCOCOCNCCOCCCNCCOCO_11.log
 Initial command:
 /work/01114/jfonner/frontera/gaussian/16rC.01/g16/l1.exe "/scratch1/08249/sa748948/lsqc/26989325/Gau-45706.inp" -scrdir="/scratch1/08249/sa748948/lsqc/26989325/"
 Entering Link 1 = /work/01114/jfonner/frontera/gaussian/16rC.01/g16/l1.exe PID=     45707.
  
 Copyright (c) 1988-2019, Gaussian, Inc.  All Rights Reserved.
  
 This is part of the Gaussian(R) 16 program.  It is based on
 the Gaussian(R) 09 system (copyright 2009, Gaussian, Inc.),
 the Gaussian(R) 03 system (copyright 2003, Gaussian, Inc.),
 the Gaussian(R) 98 system (copyright 1998, Gaussian, Inc.),
 the Gaussian(R) 94 system (copyright 1995, Gaussian, Inc.),
 the Gaussian 92(TM) system (copyright 1992, Gaussian, Inc.),
 the Gaussian 90(TM) system (copyright 1990, Gaussian, Inc.),
 the Gaussian 88(TM) system (copyright 1988, Gaussian, Inc.),
 the Gaussian 86(TM) system (copyright 1986, Carnegie Mellon
 University), and the Gaussian 82(TM) system (copyright 1983,
 Carnegie Mellon University). Gaussian is a federally registered
 trademark of Gaussian, Inc.
  
 This software contains proprietary and confidential information,
 including trade secrets, belonging to Gaussian, Inc.
  
 This software is provided under written license and may be
 used, copied, transmitted, or stored only in accord with that
 written license.
  
 The following legend is applicable only to US Government
 contracts under FAR:
  
                    RESTRICTED RIGHTS LEGEND
  
 Use, reproduction and disclosure by the US Government is
 subject to restrictions as set forth in subparagraphs (a)
 and (c) of the Commercial Computer Software - Restricted
 Rights clause in FAR 52.227-19.
  
 Gaussian, Inc.
 340 Quinnipiac St., Bldg. 40, Wallingford CT 06492
  
  
 ---------------------------------------------------------------
 Warning -- This program may not be used in any manner that
 competes with the business of Gaussian, Inc. or will provide
 assistance to any competitor of Gaussian, Inc.  The licensee
 of this program is prohibited from giving any competitor of
 Gaussian, Inc. access to this program.  By using this program,
 the user acknowledges that Gaussian, Inc. is engaged in the
 business of creating and licensing software in the field of
 computational chemistry and represents and warrants to the
 licensee that it is not a competitor of Gaussian, Inc. and that
 it will not use this program in any manner prohibited above.
 ---------------------------------------------------------------
  

 Cite this work as:
 Gaussian 16, Revision C.01,
 M. J. Frisch, G. W. Trucks, H. B. Schlegel, G. E. Scuseria, 
 M. A. Robb, J. R. Cheeseman, G. Scalmani, V. Barone, 
 G. A. Petersson, H. Nakatsuji, X. Li, M. Caricato, A. V. Marenich, 
 J. Bloino, B. G. Janesko, R. Gomperts, B. Mennucci, H. P. Hratchian, 
 J. V. Ortiz, A. F. Izmaylov, J. L. Sonnenberg, D. Williams-Young, 
 F. Ding, F. Lipparini, F. Egidi, J. Goings, B. Peng, A. Petrone, 
 T. Henderson, D. Ranasinghe, V. G. Zakrzewski, J. Gao, N. Rega, 
 G. Zheng, W. Liang, M. Hada, M. Ehara, K. Toyota, R. Fukuda, 
 J. Hasegawa, M. Ishida, T. Nakajima, Y. Honda, O. Kitao, H. Nakai, 
 T. Vreven, K. Throssell, J. A. Montgomery, Jr., J. E. Peralta, 
 F. Ogliaro, M. J. Bearpark, J. J. Heyd, E. N. Brothers, K. N. Kudin, 
 V. N. Staroverov, T. A. Keith, R. Kobayashi, J. Normand, 
 K. Raghavachari, A. P. Rendell, J. C. Burant, S. S. Iyengar, 
 J. Tomasi, M. Cossi, J. M. Millam, M. Klene, C. Adamo, R. Cammi, 
 J. W. Ochterski, R. L. Martin, K. Morokuma, O. Farkas, 
 J. B. Foresman, and D. J. Fox, Gaussian, Inc., Wallingford CT, 2019.
 
 ******************************************
 Gaussian 16:  ES64L-G16RevC.01  3-Jul-2019
                 7-Jan-2022 
 ******************************************
 %chk=NCCONCCOCCCNCCOCCCNCCOCCNCCNNCCONCCOCCCNCCOCOCNCCOCOCNCCOCCCNCCOCO_11.chk
 %nproc=56
 Will use up to   56 processors via shared memory.
 %mem=3gb
 ---------------------------------
 #p int=acc2e=12 pm6 charge nosymm
 ---------------------------------
 1/18=10,28=-2,38=1,125=101,172=1/1;
 2/12=2,15=1,17=6,18=5,40=1/2;
 3/5=2,25=1,27=12,41=3900000/1,2,3;
 4/35=1/1;
 5/5=2,35=1,38=5,87=12/2;
 6/7=2,8=2,9=2,10=2,28=1,87=12/1;
 99/5=1,9=1/99;
 Leave Link    1 at Fri Jan  7 12:00:56 2022, MaxMem=   402653184 cpu:               2.6 elap:               0.7
 (Enter /work/01114/jfonner/frontera/gaussian/16rC.01/g16/l101.exe)
 --------------
 Atom number=14
 --------------
 Symbolic Z-matrix:
 Charge =  2 Multiplicity = 1
 c                     4.271     0.81698   11.296 
 o                     4.35899   2.03299   11.36699 
 n                     3.49199   0.10401   12.07299 
 c                     2.58499   0.67699   13.085 
 c                     3.006     0.047     14.36101 
 o                     2.95799  -1.169     14.515 
 n                     3.481     0.887     15.26199 
 c                     4.163     0.39199   16.44199 
 c                     1.127     0.33      12.82699 
 c                     0.248     0.67499   14.03799 
 h                     4.84397   0.24331   10.59778 
 h                     0.80274   0.84321   11.94588 
 h                     3.64026   0.79731   17.28304 
 h                     5.20409   0.63641   16.40582 
 
 ITRead=  0  0  0  0  0  0  0  0  0  0  0  0  0  0
 MicOpt= -1 -1 -1 -1 -1 -1 -1 -1 -1 -1 -1 -1 -1 -1
 NAtoms=     14 NQM=       14 NQMF=       0 NMMI=      0 NMMIF=      0
                NMic=       0 NMicF=      0.
                    Isotopes and Nuclear Properties:
 (Nuclear quadrupole moments (NQMom) in fm**2, nuclear magnetic moments (NMagM)
  in nuclear magnetons)

  Atom         1           2           3           4           5           6           7           8           9          10
 IAtWgt=          12          16          14          12          12          16          14          12          12          12
 AtmWgt=  12.0000000  15.9949146  14.0030740  12.0000000  12.0000000  15.9949146  14.0030740  12.0000000  12.0000000  12.0000000
 NucSpn=           0           0           2           0           0           0           2           0           0           0
 AtZEff=  -0.0000000  -0.0000000  -0.0000000  -0.0000000  -0.0000000  -0.0000000  -0.0000000  -0.0000000  -0.0000000  -0.0000000
 NQMom=    0.0000000   0.0000000   2.0440000   0.0000000   0.0000000   0.0000000   2.0440000   0.0000000   0.0000000   0.0000000
 NMagM=    0.0000000   0.0000000   0.4037610   0.0000000   0.0000000   0.0000000   0.4037610   0.0000000   0.0000000   0.0000000
 AtZNuc=   6.0000000   8.0000000   7.0000000   6.0000000   6.0000000   8.0000000   7.0000000   6.0000000   6.0000000   6.0000000

  Atom        11          12          13          14
 IAtWgt=           1           1           1           1
 AtmWgt=   1.0078250   1.0078250   1.0078250   1.0078250
 NucSpn=           1           1           1           1
 AtZEff=  -0.0000000  -0.0000000  -0.0000000  -0.0000000
 NQMom=    0.0000000   0.0000000   0.0000000   0.0000000
 NMagM=    2.7928460   2.7928460   2.7928460   2.7928460
 AtZNuc=   1.0000000   1.0000000   1.0000000   1.0000000
 Background charge distribution read from input stream:
 Point Charges:
 XYZ=   -6.8150   -0.6680    1.6070 Q=    0.1840 A=    0.0000 R=    0.0000 C=    0.0000
 XYZ=   -5.7140    0.0020    2.3730 Q=    0.1690 A=    0.0000 R=    0.0000 C=    0.0000
 XYZ=   -4.3570   -0.6730    2.5880 Q=    0.1957 A=    0.0000 R=    0.0000 C=    0.0000
 XYZ=   -4.2120   -1.8700    2.4920 Q=   -0.4612 A=    0.0000 R=    0.0000 C=    0.0000
 XYZ=   -3.3810    0.1250    2.9530 Q=   -0.3003 A=    0.0000 R=    0.0000 C=    0.0000
 XYZ=   -2.0620   -0.3900    3.2740 Q=    0.2639 A=    0.0000 R=    0.0000 C=    0.0000
 XYZ=   -1.6360    0.1750    4.6000 Q=    0.1489 A=    0.0000 R=    0.0000 C=    0.0000
 XYZ=   -1.7440    1.3560    4.8620 Q=   -0.3095 A=    0.0000 R=    0.0000 C=    0.0000
 XYZ=   -0.9930   -0.0450    2.1970 Q=   -1.2213 A=    0.0000 R=    0.0000 C=    0.0000
 XYZ=    0.3900   -0.4880    2.6400 Q=    0.9359 A=    0.0000 R=    0.0000 C=    0.0000
 XYZ=   -1.3780   -0.6620    0.8970 Q=    0.8742 A=    0.0000 R=    0.0000 C=    0.0000
 XYZ=   -1.0950   -0.7000    5.4150 Q=   -0.4278 A=    0.0000 R=    0.0000 C=    0.0000
 XYZ=   -0.5720   -0.3110    6.6690 Q=    0.2444 A=    0.0000 R=    0.0000 C=    0.0000
 XYZ=    0.8400   -0.8540    6.7920 Q=    0.2936 A=    0.0000 R=    0.0000 C=    0.0000
 XYZ=    1.0270   -2.0220    6.7200 Q=   -0.4614 A=    0.0000 R=    0.0000 C=    0.0000
 XYZ=   -1.4110   -0.9130    7.7970 Q=   -1.2094 A=    0.0000 R=    0.0000 C=    0.0000
 XYZ=   -0.7270   -0.6450    9.1230 Q=    0.9838 A=    0.0000 R=    0.0000 C=    0.0000
 XYZ=   -2.8000   -0.3490    7.7890 Q=    0.9737 A=    0.0000 R=    0.0000 C=    0.0000
 XYZ=    1.8100    0.0020    7.0230 Q=   -0.6094 A=    0.0000 R=    0.0000 C=    0.0000
 XYZ=    3.1910   -0.4290    7.1010 Q=   -0.0383 A=    0.0000 R=    0.0000 C=    0.0000
 XYZ=    3.9110    0.2580    8.2290 Q=    0.2652 A=    0.0000 R=    0.0000 C=    0.0000
 XYZ=    4.0640    1.4780    8.2280 Q=   -0.5489 A=    0.0000 R=    0.0000 C=    0.0000
 XYZ=    3.8710   -0.1030    5.7480 Q=    0.4467 A=    0.0000 R=    0.0000 C=    0.0000
 XYZ=    5.2470   -0.6430    5.5810 Q=   -0.4177 A=    0.0000 R=    0.0000 C=    0.0000
 XYZ=    5.8610   -0.6890    4.3530 Q=   -0.2968 A=    0.0000 R=    0.0000 C=    0.0000
 XYZ=    6.1080   -1.1970    6.4480 Q=    0.2630 A=    0.0000 R=    0.0000 C=    0.0000
 XYZ=    7.0590   -1.2270    4.4820 Q=    0.6103 A=    0.0000 R=    0.0000 C=    0.0000
 XYZ=    7.2390   -1.5230    5.7510 Q=   -0.3347 A=    0.0000 R=    0.0000 C=    0.0000
 XYZ=    4.3640   -0.5270    9.1890 Q=   -0.5070 A=    0.0000 R=    0.0000 C=    0.0000
 XYZ=    5.0670    0.0200   10.3260 Q=    0.3996 A=    0.0000 R=    0.0000 C=    0.0000
 XYZ=    0.6740    1.0470   11.5960 Q=    0.9278 A=    0.0000 R=    0.0000 C=    0.0000
 XYZ=    3.4240    0.9650   17.6310 Q=    0.3166 A=    0.0000 R=    0.0000 C=    0.0000
 XYZ=    3.1360    2.1100   17.6120 Q=   -0.5694 A=    0.0000 R=    0.0000 C=    0.0000
 XYZ=    5.6880    0.7500   16.3890 Q=   -0.3175 A=    0.0000 R=    0.0000 C=    0.0000
 XYZ=    6.2640    0.1300   15.2360 Q=   -0.3082 A=    0.0000 R=    0.0000 C=    0.0000
 XYZ=    6.4200    0.2100   17.5690 Q=    0.9463 A=    0.0000 R=    0.0000 C=    0.0000
 XYZ=    3.1730    0.1290   18.6470 Q=   -0.5421 A=    0.0000 R=    0.0000 C=    0.0000
 XYZ=    2.5590    0.5160   19.9030 Q=    0.0236 A=    0.0000 R=    0.0000 C=    0.0000
 XYZ=    3.3500   -0.1220   21.0140 Q=    0.1847 A=    0.0000 R=    0.0000 C=    0.0000
 XYZ=    3.3660   -1.3390   21.1400 Q=   -0.4163 A=    0.0000 R=    0.0000 C=    0.0000
 XYZ=    1.1380   -0.0210   19.9830 Q=   -0.2907 A=    0.0000 R=    0.0000 C=    0.0000
 XYZ=    0.3930    0.3940   18.8240 Q=   -0.3415 A=    0.0000 R=    0.0000 C=    0.0000
 XYZ=    0.4860    0.5010   21.1670 Q=    0.7765 A=    0.0000 R=    0.0000 C=    0.0000
 XYZ=    4.0670    0.6880   21.7680 Q=   -0.6191 A=    0.0000 R=    0.0000 C=    0.0000
 XYZ=    4.8880    0.2050   22.8510 Q=    0.2833 A=    0.0000 R=    0.0000 C=    0.0000
 XYZ=    4.3500    0.7690   24.1740 Q=    0.1730 A=    0.0000 R=    0.0000 C=    0.0000
 XYZ=    4.1610    1.9810   24.2690 Q=   -0.2861 A=    0.0000 R=    0.0000 C=    0.0000
 XYZ=    6.3620    0.6140   22.6520 Q=   -1.1933 A=    0.0000 R=    0.0000 C=    0.0000
 XYZ=    7.1520    0.2970   23.8740 Q=    0.8585 A=    0.0000 R=    0.0000 C=    0.0000
 XYZ=    6.9530   -0.1210   21.4550 Q=    0.9590 A=    0.0000 R=    0.0000 C=    0.0000
 XYZ=    4.0650   -0.1200   25.1510 Q=   -0.4907 A=    0.0000 R=    0.0000 C=    0.0000
 XYZ=    3.7200    0.3130   26.5150 Q=   -0.3576 A=    0.0000 R=    0.0000 C=    0.0000
 XYZ=    4.9410    0.1400   27.4200 Q=    0.0549 A=    0.0000 R=    0.0000 C=    0.0000
 XYZ=    5.7140   -0.8090   27.2870 Q=   -0.0565 A=    0.0000 R=    0.0000 C=    0.0000
 XYZ=    2.4990   -0.4220   27.0620 Q=    1.1023 A=    0.0000 R=    0.0000 C=    0.0000
 XYZ=    5.2500    0.9550   28.2940 Q=    0.3115 A=    0.0000 R=    0.0000 C=    0.0000
 Pt Chg Charge=              1.2373 electrons
 Pt Chg Dipole moment (Debye):
    X=              6.9784    Y=             -6.1426    Z=            109.9710  Tot=            110.3632
 Pt Chg Quadrupole moment (Debye-Ang):
   XX=            283.2879   YY=            -38.6856   ZZ=           2984.1968
   XY=            -48.8397   XZ=            427.8546   YZ=           -122.1974
 Pt Chg Traceless Quadrupole moment (Debye-Ang):
   XX=           -792.9785   YY=          -1114.9520   ZZ=           1907.9304
   XY=            -48.8397   XZ=            427.8546   YZ=           -122.1974
 Pt Chg Octapole moment (Debye-Ang**2):
  XXX=           1747.1190  YYY=             -5.6653  ZZZ=          82942.2606  XYY=            -66.5266
  XXY=           -208.4261  XXZ=           5285.0952  XZZ=          13043.9716  YZZ=          -3040.5192
  YYZ=           -487.8058  XYZ=           -764.1334
 Pt Chg Hexadecapole moment (Debye-Ang**3):
 XXXX=          19959.2002 YYYY=           -158.7059 ZZZZ=        2345632.3292 XXXY=          -1175.1060
 XXXZ=          43409.7557 YYYX=           -182.4528 YYYZ=           -449.8443 ZZZX=         361464.3904
 ZZZY=         -70770.2135 XXYY=           -488.5323 XXZZ=         121496.8975 YYZZ=          -8026.7487
 XXYZ=          -3287.6445 YYXZ=          -1620.4329 ZZXY=         -14479.9377
 Leave Link  101 at Fri Jan  7 12:00:57 2022, MaxMem=   402653184 cpu:               5.5 elap:               1.1
 (Enter /work/01114/jfonner/frontera/gaussian/16rC.01/g16/l202.exe)
                          Input orientation:                          
 ---------------------------------------------------------------------
 Center     Atomic      Atomic             Coordinates (Angstroms)
 Number     Number       Type             X           Y           Z
 ---------------------------------------------------------------------
      1          6           0        4.271002    0.816983   11.295996
      2          8           0        4.358988    2.032994   11.366992
      3          7           0        3.491993    0.104011   12.072989
      4          6           0        2.584986    0.676989   13.085005
      5          6           0        3.005998    0.046997   14.361015
      6          8           0        2.957993   -1.169004   14.515002
      7          7           0        3.481002    0.887001   15.261988
      8          6           0        4.163003    0.391994   16.441992
      9          6           0        1.127000    0.329997   12.826995
     10          6           0        0.247996    0.674994   14.037988
     11          1           0        4.843965    0.243305   10.597779
     12          1           0        0.802745    0.843214   11.945878
     13          1           0        3.640262    0.797306   17.283041
     14          1           0        5.204086    0.636407   16.405823
 ---------------------------------------------------------------------
                    Distance matrix (angstroms):
                    1          2          3          4          5
     1  C    0.000000
     2  O    1.221256   0.000000
     3  N    1.311069   2.229594   0.000000
     4  C    2.462275   2.817339   1.474836   0.000000
     5  C    3.404035   3.839133   2.339766   1.484029   0.000000
     6  O    4.003765   4.703780   2.805201   2.364682   1.226652
     7  N    4.044514   4.153932   3.283734   2.363515   1.320224
     8  C    5.164644   5.337314   4.429602   3.720312   2.405858
     9  C    3.530703   3.934152   2.492546   1.520756   2.442118
    10  C    4.870652   5.087105   3.835460   2.523827   2.846980
    11  H    1.070000   2.007456   2.005861   3.387825   4.192685
    12  H    3.528717   3.794410   2.791887   2.121704   3.364695
    13  H    6.020210   6.086307   5.258069   4.330311   3.082774
    14  H    5.197460   5.296647   4.689154   4.229558   3.059451
                    6          7          8          9         10
     6  O    0.000000
     7  N    2.249152   0.000000
     8  C    2.757182   1.450023   0.000000
     9  C    2.906701   3.432313   4.721161   0.000000
    10  C    3.312394   3.463444   4.602890   1.535635   0.000000
    11  H    4.571230   4.901720   5.885630   4.335061   5.757111
    12  H    3.910821   4.262812   5.631161   1.070000   2.170938
    13  H    3.463222   2.029302   1.070000   5.137238   4.696041
    14  H    3.446687   2.083309   1.070000   5.433648   5.492809
                   11         12         13         14
    11  H    0.000000
    12  H    4.302177   0.000000
    13  H    6.815317   6.044744   0.000000
    14  H    5.832460   6.269425   1.800262   0.000000
 Symmetry turned off by external request.
 Stoichiometry    C6H4N2O2(2+)
 Framework group  C1[X(C6H4N2O2)]
 Deg. of freedom    36
 Full point group                 C1      NOp   1
 Rotational constants (GHZ):           1.7737121           1.0698581           0.8145239
 Leave Link  202 at Fri Jan  7 12:00:58 2022, MaxMem=   402653184 cpu:               3.9 elap:               1.1
 (Enter /work/01114/jfonner/frontera/gaussian/16rC.01/g16/l301.exe)
 Standard basis: VSTO-6G (5D, 7F)
 Ernie: Thresh=  0.10000D-02 Tol=  0.10000D-05 Strict=F.
  NNHCO=     0 NNPyr=     0 NCTC=     0               EPep=         0.000000000
    EC=       200.267520131  ECS=         3.196158862   EG=         0.280683565
   EHC=         0.001081700  EAt=       -61.016910202  AtH=         2.516083127
 EPDDG=         0.000000000  ECC=       203.745444259 EAtT=        63.532993329
    44 basis functions,   264 primitive gaussians,    44 cartesian basis functions
    24 alpha electrons       24 beta electrons
       nuclear repulsion energy       267.2784375876 Hartrees.
 IExCor=    0 DFT=F Ex=HF Corr=None ExCW=0 ScaHFX=  1.000000
 ScaDFX=  1.000000  1.000000  1.000000  1.000000 ScalE2=  1.000000  1.000000
 IRadAn=      5 IRanWt=     -1 IRanGd=            0 ICorTp=0 IEmpDi=  4
 Integral buffers will be    131072 words long.
 Regular integral format.
 Two-electron integral symmetry is turned off.
 Background charge distribution read from rwf.
 PtFMM for NChg=        70 BoxLen=    40.00 Levels= 1 LMax=20 SMax=    51.8 ICnFMM=     1:
 Self energy of the charges =        -3.2125658855 a.u.
 MM   energy of the charges =         0.0000000000 a.u.
 Nuclei-charges interaction =         5.3702544639 a.u.
 Nuclear repulsion after external point charges =      269.4361261660 Hartrees.
 Leave Link  301 at Fri Jan  7 12:00:59 2022, MaxMem=   402653184 cpu:               5.9 elap:               1.2
 (Enter /work/01114/jfonner/frontera/gaussian/16rC.01/g16/l302.exe)
 Do NDO integrals.
 NPDir=0 NMtPBC=     1 NCelOv=     1 NCel=       1 NClECP=     1 NCelD=      1
         NCelK=      1 NCelE2=     1 NClLst=     1 CellRange=     0.0.
 One-electron integrals computed using PRISM.
 NBasis=    44 RedAO= F EigKep=  0.00D+00  NBF=    44
 NBsUse=    44 1.00D-04 EigRej=  0.00D+00 NBFU=    44
 Leave Link  302 at Fri Jan  7 12:01:03 2022, MaxMem=   402653184 cpu:              21.2 elap:               4.0
 (Enter /work/01114/jfonner/frontera/gaussian/16rC.01/g16/l303.exe)
 DipDrv:  MaxL=1.
 Leave Link  303 at Fri Jan  7 12:01:05 2022, MaxMem=   402653184 cpu:               3.9 elap:               1.0
 (Enter /work/01114/jfonner/frontera/gaussian/16rC.01/g16/l401.exe)
 Simple Huckel Guess.
 JPrj=0 DoOrth=F DoCkMO=F.
 Leave Link  401 at Fri Jan  7 12:01:07 2022, MaxMem=   402653184 cpu:               9.2 elap:               1.5
 (Enter /work/01114/jfonner/frontera/gaussian/16rC.01/g16/l502.exe)
 Keep J ints in memory in canonical form, NReq=865179.
 FoFCou: FMM=F IPFlag=           0 FMFlag=           0 FMFlg1=           0
         NFxFlg=           0 DoJE=F BraDBF=F KetDBF=F FulRan=T
         wScrn=  0.000000 ICntrl=       600 IOpCl=  2 I1Cent=           0 NGrid=           0
         NMat0=    1 NMatS0=    104 NMatT0=    0 NMatD0=    1 NMtDS0=    0 NMtDT0=    0
 Symmetry not used in FoFCou.
 Two-electron integral symmetry not used.
 Closed shell SCF:
 Using DIIS extrapolation, IDIIS=  1040.
 Overlap will be assumed to be unity.
 NGot=   402653184 LenX=   402581398 LenY=   402579021
 Requested convergence on RMS density matrix=1.00D-08 within 128 cycles.
 Requested convergence on MAX density matrix=1.00D-06.
 Requested convergence on             energy=1.00D-06.
 No special actions if energy rises.

 Cycle   1  Pass 1  IDiag  1:
 E=-0.227475148293138    
 DIIS: error= 5.81D-02 at cycle   1 NSaved=   1.
 NSaved= 1 IEnMin= 1 EnMin=-0.227475148293138     IErMin= 1 ErrMin= 5.81D-02
 ErrMax= 5.81D-02  0.00D+00 EMaxC= 1.00D-01 BMatC= 1.96D-01 BMatP= 1.96D-01
 IDIUse=3 WtCom= 4.19D-01 WtEn= 5.81D-01
 Coeff-Com:  0.100D+01
 Coeff-En:   0.100D+01
 Coeff:      0.100D+01
 GapD=    2.000 DampG=2.000 DampE=0.500 DampFc=1.0000 IDamp=-1.
 RMSDP=2.74D-02 MaxDP=2.34D-01              OVMax= 0.00D+00

 Cycle   2  Pass 1  IDiag  1:
 E= -1.02468356966972     Delta-E=       -0.797208421377 Rises=F Damp=F
 DIIS: error= 2.65D-02 at cycle   2 NSaved=   2.
 NSaved= 2 IEnMin= 2 EnMin= -1.02468356966972     IErMin= 2 ErrMin= 2.65D-02
 ErrMax= 2.65D-02  0.00D+00 EMaxC= 1.00D-01 BMatC= 3.13D-02 BMatP= 1.96D-01
 IDIUse=3 WtCom= 7.35D-01 WtEn= 2.65D-01
 Coeff-Com: -0.902D-02 0.101D+01
 Coeff-En:   0.000D+00 0.100D+01
 Coeff:     -0.663D-02 0.101D+01
 RMSDP=8.97D-03 MaxDP=9.34D-02 DE=-7.97D-01 OVMax= 0.00D+00

 Cycle   3  Pass 1  IDiag  1:
 E= -1.13711568169407     Delta-E=       -0.112432112024 Rises=F Damp=F
 DIIS: error= 9.75D-03 at cycle   3 NSaved=   3.
 NSaved= 3 IEnMin= 3 EnMin= -1.13711568169407     IErMin= 3 ErrMin= 9.75D-03
 ErrMax= 9.75D-03  0.00D+00 EMaxC= 1.00D-01 BMatC= 5.06D-03 BMatP= 3.13D-02
 IDIUse=3 WtCom= 9.02D-01 WtEn= 9.75D-02
 Coeff-Com: -0.986D-01-0.161D+00 0.126D+01
 Coeff-En:   0.000D+00 0.000D+00 0.100D+01
 Coeff:     -0.890D-01-0.146D+00 0.123D+01
 RMSDP=5.46D-03 MaxDP=4.07D-02 DE=-1.12D-01 OVMax= 0.00D+00

 Cycle   4  Pass 1  IDiag  3:
 E= -1.16434546038658     Delta-E=       -0.027229778693 Rises=F Damp=F
 DIIS: error= 2.45D-03 at cycle   4 NSaved=   4.
 NSaved= 4 IEnMin= 4 EnMin= -1.16434546038658     IErMin= 4 ErrMin= 2.45D-03
 ErrMax= 2.45D-03  0.00D+00 EMaxC= 1.00D-01 BMatC= 4.98D-04 BMatP= 5.06D-03
 IDIUse=3 WtCom= 9.76D-01 WtEn= 2.45D-02
 Coeff-Com:  0.239D-01-0.700D-01-0.121D+00 0.117D+01
 Coeff-En:   0.000D+00 0.000D+00 0.000D+00 0.100D+01
 Coeff:      0.233D-01-0.683D-01-0.118D+00 0.116D+01
 Gap=     0.155 Goal=   None    Shift=    0.000
 RMSDP=2.73D-03 MaxDP=2.24D-02 DE=-2.72D-02 OVMax= 5.63D-02

 Cycle   5  Pass 1  IDiag  3:
 E= -1.16890156996044     Delta-E=       -0.004556109574 Rises=F Damp=F
 DIIS: error= 1.20D-03 at cycle   5 NSaved=   5.
 NSaved= 5 IEnMin= 5 EnMin= -1.16890156996044     IErMin= 5 ErrMin= 1.20D-03
 ErrMax= 1.20D-03  0.00D+00 EMaxC= 1.00D-01 BMatC= 1.55D-04 BMatP= 4.98D-04
 IDIUse=3 WtCom= 9.88D-01 WtEn= 1.20D-02
 Coeff-Com:  0.172D-01 0.981D-02-0.172D+00 0.190D+00 0.955D+00
 Coeff-En:   0.000D+00 0.000D+00 0.000D+00 0.000D+00 0.100D+01
 Coeff:      0.170D-01 0.970D-02-0.170D+00 0.188D+00 0.956D+00
 Gap=     0.159 Goal=   None    Shift=    0.000
 RMSDP=1.47D-03 MaxDP=1.02D-02 DE=-4.56D-03 OVMax= 2.76D-02

 Cycle   6  Pass 1  IDiag  3:
 E= -1.17060702975061     Delta-E=       -0.001705459790 Rises=F Damp=F
 DIIS: error= 9.82D-04 at cycle   6 NSaved=   6.
 NSaved= 6 IEnMin= 6 EnMin= -1.17060702975061     IErMin= 6 ErrMin= 9.82D-04
 ErrMax= 9.82D-04  0.00D+00 EMaxC= 1.00D-01 BMatC= 6.24D-05 BMatP= 1.55D-04
 IDIUse=3 WtCom= 9.90D-01 WtEn= 9.82D-03
 Coeff-Com: -0.388D-02 0.339D-02 0.333D-01-0.127D+00-0.561D+00 0.166D+01
 Coeff-En:   0.000D+00 0.000D+00 0.000D+00 0.000D+00 0.000D+00 0.100D+01
 Coeff:     -0.385D-02 0.336D-02 0.330D-01-0.126D+00-0.556D+00 0.165D+01
 Gap=     0.160 Goal=   None    Shift=    0.000
 RMSDP=1.92D-03 MaxDP=1.66D-02 DE=-1.71D-03 OVMax= 3.92D-02

 Cycle   7  Pass 1  IDiag  3:
 E= -1.17207174212888     Delta-E=       -0.001464712378 Rises=F Damp=F
 DIIS: error= 7.37D-04 at cycle   7 NSaved=   7.
 NSaved= 7 IEnMin= 7 EnMin= -1.17207174212888     IErMin= 7 ErrMin= 7.37D-04
 ErrMax= 7.37D-04  0.00D+00 EMaxC= 1.00D-01 BMatC= 3.58D-05 BMatP= 6.24D-05
 IDIUse=3 WtCom= 9.93D-01 WtEn= 7.37D-03
 Coeff-Com:  0.337D-02-0.204D-01 0.171D-01 0.261D+00-0.455D+00-0.762D+00
 Coeff-Com:  0.196D+01
 Coeff-En:   0.000D+00 0.000D+00 0.000D+00 0.000D+00 0.000D+00 0.000D+00
 Coeff-En:   0.100D+01
 Coeff:      0.335D-02-0.203D-01 0.170D-01 0.259D+00-0.452D+00-0.756D+00
 Coeff:      0.195D+01
 Gap=     0.160 Goal=   None    Shift=    0.000
 RMSDP=2.14D-03 MaxDP=1.78D-02 DE=-1.46D-03 OVMax= 4.36D-02

 Cycle   8  Pass 1  IDiag  3:
 E= -1.17320030628946     Delta-E=       -0.001128564161 Rises=F Damp=F
 DIIS: error= 4.90D-04 at cycle   8 NSaved=   8.
 NSaved= 8 IEnMin= 8 EnMin= -1.17320030628946     IErMin= 8 ErrMin= 4.90D-04
 ErrMax= 4.90D-04  0.00D+00 EMaxC= 1.00D-01 BMatC= 1.61D-05 BMatP= 3.58D-05
 IDIUse=3 WtCom= 9.95D-01 WtEn= 4.90D-03
 Coeff-Com:  0.237D-02 0.109D-02-0.221D-01-0.317D-01 0.153D+00 0.539D+00
 Coeff-Com: -0.188D+01 0.224D+01
 Coeff-En:   0.000D+00 0.000D+00 0.000D+00 0.000D+00 0.000D+00 0.000D+00
 Coeff-En:   0.000D+00 0.100D+01
 Coeff:      0.236D-02 0.109D-02-0.220D-01-0.316D-01 0.153D+00 0.536D+00
 Coeff:     -0.188D+01 0.224D+01
 Gap=     0.160 Goal=   None    Shift=    0.000
 RMSDP=1.89D-03 MaxDP=1.44D-02 DE=-1.13D-03 OVMax= 3.96D-02

 Cycle   9  Pass 1  IDiag  3:
 E= -1.17386768465155     Delta-E=       -0.000667378362 Rises=F Damp=F
 DIIS: error= 2.68D-04 at cycle   9 NSaved=   9.
 NSaved= 9 IEnMin= 9 EnMin= -1.17386768465155     IErMin= 9 ErrMin= 2.68D-04
 ErrMax= 2.68D-04  0.00D+00 EMaxC= 1.00D-01 BMatC= 7.49D-06 BMatP= 1.61D-05
 IDIUse=3 WtCom= 9.97D-01 WtEn= 2.68D-03
 Coeff-Com: -0.241D-03-0.528D-02 0.122D-01 0.481D-01-0.177D+00-0.182D+00
 Coeff-Com:  0.116D+01-0.214D+01 0.229D+01
 Coeff-En:   0.000D+00 0.000D+00 0.000D+00 0.000D+00 0.000D+00 0.000D+00
 Coeff-En:   0.000D+00 0.000D+00 0.100D+01
 Coeff:     -0.241D-03-0.527D-02 0.122D-01 0.480D-01-0.177D+00-0.181D+00
 Coeff:      0.115D+01-0.213D+01 0.228D+01
 Gap=     0.161 Goal=   None    Shift=    0.000
 RMSDP=1.58D-03 MaxDP=1.12D-02 DE=-6.67D-04 OVMax= 3.16D-02

 Cycle  10  Pass 1  IDiag  3:
 E= -1.17425772669253     Delta-E=       -0.000390042041 Rises=F Damp=F
 DIIS: error= 2.30D-04 at cycle  10 NSaved=  10.
 NSaved=10 IEnMin=10 EnMin= -1.17425772669253     IErMin=10 ErrMin= 2.30D-04
 ErrMax= 2.30D-04  0.00D+00 EMaxC= 1.00D-01 BMatC= 4.18D-06 BMatP= 7.49D-06
 IDIUse=3 WtCom= 9.98D-01 WtEn= 2.30D-03
 Coeff-Com: -0.184D-04-0.280D-02 0.105D-01-0.617D-02-0.649D-01 0.204D+00
 Coeff-Com: -0.452D+00 0.935D+00-0.163D+01 0.201D+01
 Coeff-En:   0.000D+00 0.000D+00 0.000D+00 0.000D+00 0.000D+00 0.000D+00
 Coeff-En:   0.000D+00 0.000D+00 0.000D+00 0.100D+01
 Coeff:     -0.184D-04-0.279D-02 0.104D-01-0.616D-02-0.647D-01 0.204D+00
 Coeff:     -0.451D+00 0.933D+00-0.163D+01 0.201D+01
 Gap=     0.161 Goal=   None    Shift=    0.000
 RMSDP=1.14D-03 MaxDP=9.00D-03 DE=-3.90D-04 OVMax= 2.44D-02

 Cycle  11  Pass 1  IDiag  3:
 E= -1.17447604213896     Delta-E=       -0.000218315446 Rises=F Damp=F
 DIIS: error= 1.97D-04 at cycle  11 NSaved=  11.
 NSaved=11 IEnMin=11 EnMin= -1.17447604213896     IErMin=11 ErrMin= 1.97D-04
 ErrMax= 1.97D-04  0.00D+00 EMaxC= 1.00D-01 BMatC= 2.75D-06 BMatP= 4.18D-06
 IDIUse=3 WtCom= 9.98D-01 WtEn= 1.97D-03
 Coeff-Com: -0.447D-03-0.227D-02 0.840D-02-0.152D-01-0.150D-01 0.523D-01
 Coeff-Com: -0.214D-01-0.822D-01 0.400D+00-0.134D+01 0.202D+01
 Coeff-En:   0.000D+00 0.000D+00 0.000D+00 0.000D+00 0.000D+00 0.000D+00
 Coeff-En:   0.000D+00 0.000D+00 0.000D+00 0.000D+00 0.100D+01
 Coeff:     -0.446D-03-0.227D-02 0.838D-02-0.152D-01-0.150D-01 0.522D-01
 Coeff:     -0.213D-01-0.820D-01 0.399D+00-0.134D+01 0.202D+01
 Gap=     0.162 Goal=   None    Shift=    0.000
 RMSDP=1.01D-03 MaxDP=8.78D-03 DE=-2.18D-04 OVMax= 2.47D-02

 Cycle  12  Pass 1  IDiag  3:
 E= -1.17463607677820     Delta-E=       -0.000160034639 Rises=F Damp=F
 DIIS: error= 1.69D-04 at cycle  12 NSaved=  12.
 NSaved=12 IEnMin=12 EnMin= -1.17463607677820     IErMin=12 ErrMin= 1.69D-04
 ErrMax= 1.69D-04  0.00D+00 EMaxC= 1.00D-01 BMatC= 2.04D-06 BMatP= 2.75D-06
 IDIUse=3 WtCom= 9.98D-01 WtEn= 1.69D-03
 Coeff-Com: -0.370D-03-0.143D-02 0.729D-02-0.154D-01-0.796D-02 0.775D-01
 Coeff-Com: -0.104D+00 0.163D-01 0.202D+00-0.236D+00-0.666D+00 0.173D+01
 Coeff-En:   0.000D+00 0.000D+00 0.000D+00 0.000D+00 0.000D+00 0.000D+00
 Coeff-En:   0.000D+00 0.000D+00 0.000D+00 0.000D+00 0.000D+00 0.100D+01
 Coeff:     -0.369D-03-0.143D-02 0.728D-02-0.154D-01-0.795D-02 0.773D-01
 Coeff:     -0.104D+00 0.162D-01 0.202D+00-0.236D+00-0.665D+00 0.173D+01
 Gap=     0.163 Goal=   None    Shift=    0.000
 RMSDP=8.16D-04 MaxDP=7.22D-03 DE=-1.60D-04 OVMax= 2.13D-02

 Cycle  13  Pass 1  IDiag  3:
 E= -1.17474661358096     Delta-E=       -0.000110536803 Rises=F Damp=F
 DIIS: error= 1.33D-04 at cycle  13 NSaved=  13.
 NSaved=13 IEnMin=13 EnMin= -1.17474661358096     IErMin=13 ErrMin= 1.33D-04
 ErrMax= 1.33D-04  0.00D+00 EMaxC= 1.00D-01 BMatC= 1.45D-06 BMatP= 2.04D-06
 IDIUse=3 WtCom= 9.99D-01 WtEn= 1.33D-03
 Coeff-Com: -0.154D-03-0.107D-02 0.394D-02-0.692D-02 0.565D-02 0.130D-01
 Coeff-Com: -0.415D-01 0.295D-02 0.601D-01 0.482D-01-0.178D+00-0.114D+01
 Coeff-Com:  0.223D+01
 Coeff-En:   0.000D+00 0.000D+00 0.000D+00 0.000D+00 0.000D+00 0.000D+00
 Coeff-En:   0.000D+00 0.000D+00 0.000D+00 0.000D+00 0.000D+00 0.000D+00
 Coeff-En:   0.100D+01
 Coeff:     -0.154D-03-0.107D-02 0.393D-02-0.691D-02 0.564D-02 0.130D-01
 Coeff:     -0.414D-01 0.295D-02 0.600D-01 0.481D-01-0.178D+00-0.113D+01
 Coeff:      0.223D+01
 Gap=     0.164 Goal=   None    Shift=    0.000
 RMSDP=1.16D-03 MaxDP=1.04D-02 DE=-1.11D-04 OVMax= 3.05D-02

 Cycle  14  Pass 1  IDiag  3:
 E= -1.17486178586284     Delta-E=       -0.000115172282 Rises=F Damp=F
 DIIS: error= 1.09D-04 at cycle  14 NSaved=  14.
 NSaved=14 IEnMin=14 EnMin= -1.17486178586284     IErMin=14 ErrMin= 1.09D-04
 ErrMax= 1.09D-04  0.00D+00 EMaxC= 1.00D-01 BMatC= 1.08D-06 BMatP= 1.45D-06
 IDIUse=3 WtCom= 9.99D-01 WtEn= 1.09D-03
 Coeff-Com: -0.448D-03-0.188D-02 0.795D-02-0.107D-01-0.179D-01 0.382D-01
 Coeff-Com:  0.119D-01-0.118D+00 0.239D+00-0.301D+00 0.542D+00-0.927D+00
 Coeff-Com:  0.318D+00 0.122D+01
 Coeff-En:   0.000D+00 0.000D+00 0.000D+00 0.000D+00 0.000D+00 0.000D+00
 Coeff-En:   0.000D+00 0.000D+00 0.000D+00 0.000D+00 0.000D+00 0.000D+00
 Coeff-En:   0.000D+00 0.100D+01
 Coeff:     -0.447D-03-0.188D-02 0.794D-02-0.107D-01-0.179D-01 0.382D-01
 Coeff:      0.119D-01-0.118D+00 0.239D+00-0.301D+00 0.542D+00-0.926D+00
 Coeff:      0.317D+00 0.122D+01
 Gap=     0.165 Goal=   None    Shift=    0.000
 RMSDP=4.69D-04 MaxDP=3.84D-03 DE=-1.15D-04 OVMax= 1.22D-02

 Cycle  15  Pass 1  IDiag  3:
 E= -1.17489750864036     Delta-E=       -0.000035722778 Rises=F Damp=F
 DIIS: error= 8.67D-05 at cycle  15 NSaved=  15.
 NSaved=15 IEnMin=15 EnMin= -1.17489750864036     IErMin=15 ErrMin= 8.67D-05
 ErrMax= 8.67D-05  0.00D+00 EMaxC= 1.00D-01 BMatC= 4.60D-07 BMatP= 1.08D-06
 IDIUse=1 WtCom= 1.00D+00 WtEn= 0.00D+00
 Coeff-Com:  0.145D-03 0.775D-03-0.183D-02-0.903D-04 0.513D-02 0.414D-02
 Coeff-Com: -0.362D-01 0.839D-01-0.158D+00 0.205D+00-0.160D+00 0.277D+00
 Coeff-Com: -0.785D+00-0.487D+00 0.205D+01
 Coeff:      0.145D-03 0.775D-03-0.183D-02-0.903D-04 0.513D-02 0.414D-02
 Coeff:     -0.362D-01 0.839D-01-0.158D+00 0.205D+00-0.160D+00 0.277D+00
 Coeff:     -0.785D+00-0.487D+00 0.205D+01
 Gap=     0.166 Goal=   None    Shift=    0.000
 RMSDP=1.03D-03 MaxDP=8.96D-03 DE=-3.57D-05 OVMax= 2.69D-02

 Cycle  16  Pass 1  IDiag  3:
 E= -1.17493139194005     Delta-E=       -0.000033883300 Rises=F Damp=F
 DIIS: error= 5.57D-05 at cycle  16 NSaved=  16.
 NSaved=16 IEnMin=16 EnMin= -1.17493139194005     IErMin=16 ErrMin= 5.57D-05
 ErrMax= 5.57D-05  0.00D+00 EMaxC= 1.00D-01 BMatC= 3.56D-07 BMatP= 4.60D-07
 IDIUse=1 WtCom= 1.00D+00 WtEn= 0.00D+00
 Coeff-Com:  0.155D-03 0.248D-03-0.111D-02-0.324D-03 0.461D-02 0.139D-01
 Coeff-Com: -0.548D-01 0.899D-01-0.117D+00 0.118D+00-0.108D+00 0.142D+00
 Coeff-Com: -0.102D+00-0.795D+00 0.120D+01 0.608D+00
 Coeff:      0.155D-03 0.248D-03-0.111D-02-0.324D-03 0.461D-02 0.139D-01
 Coeff:     -0.548D-01 0.899D-01-0.117D+00 0.118D+00-0.108D+00 0.142D+00
 Coeff:     -0.102D+00-0.795D+00 0.120D+01 0.608D+00
 Gap=     0.166 Goal=   None    Shift=    0.000
 RMSDP=7.54D-05 MaxDP=7.04D-04 DE=-3.39D-05 OVMax= 1.44D-03

 Cycle  17  Pass 1  IDiag  3:
 E= -1.17493375937079     Delta-E=       -0.000002367431 Rises=F Damp=F
 DIIS: error= 3.06D-05 at cycle  17 NSaved=  17.
 NSaved=17 IEnMin=17 EnMin= -1.17493375937079     IErMin=17 ErrMin= 3.06D-05
 ErrMax= 3.06D-05  0.00D+00 EMaxC= 1.00D-01 BMatC= 6.84D-08 BMatP= 3.56D-07
 IDIUse=1 WtCom= 1.00D+00 WtEn= 0.00D+00
 Coeff-Com: -0.605D-04 0.514D-03-0.964D-03-0.500D-02 0.212D-01-0.203D-01
 Coeff-Com: -0.276D-02 0.383D-02 0.137D-01-0.314D-01 0.930D-01-0.134D+00
 Coeff-Com:  0.175D+00 0.181D+00-0.617D+00-0.248D+00 0.157D+01
 Coeff:     -0.605D-04 0.514D-03-0.964D-03-0.500D-02 0.212D-01-0.203D-01
 Coeff:     -0.276D-02 0.383D-02 0.137D-01-0.314D-01 0.930D-01-0.134D+00
 Coeff:      0.175D+00 0.181D+00-0.617D+00-0.248D+00 0.157D+01
 Gap=     0.166 Goal=   None    Shift=    0.000
 RMSDP=7.55D-05 MaxDP=6.23D-04 DE=-2.37D-06 OVMax= 1.18D-03

 Cycle  18  Pass 1  IDiag  3:
 E= -1.17493503518699     Delta-E=       -0.000001275816 Rises=F Damp=F
 DIIS: error= 1.93D-05 at cycle  18 NSaved=  18.
 NSaved=18 IEnMin=18 EnMin= -1.17493503518699     IErMin=18 ErrMin= 1.93D-05
 ErrMax= 1.93D-05  0.00D+00 EMaxC= 1.00D-01 BMatC= 2.77D-08 BMatP= 6.84D-08
 IDIUse=1 WtCom= 1.00D+00 WtEn= 0.00D+00
 Coeff-Com:  0.107D-03-0.187D-03-0.700D-03 0.532D-02-0.517D-02-0.104D-01
 Coeff-Com:  0.235D-01-0.160D-01 0.328D-02 0.507D-02-0.267D-01 0.378D-01
 Coeff-Com: -0.150D-01 0.190D+00-0.375D+00-0.967D-02 0.150D+00 0.104D+01
 Coeff:      0.107D-03-0.187D-03-0.700D-03 0.532D-02-0.517D-02-0.104D-01
 Coeff:      0.235D-01-0.160D-01 0.328D-02 0.507D-02-0.267D-01 0.378D-01
 Coeff:     -0.150D-01 0.190D+00-0.375D+00-0.967D-02 0.150D+00 0.104D+01
 Gap=     0.166 Goal=   None    Shift=    0.000
 RMSDP=9.95D-05 MaxDP=8.41D-04 DE=-1.28D-06 OVMax= 2.46D-03

 Cycle  19  Pass 1  IDiag  3:
 E= -1.17493551214756     Delta-E=       -0.000000476961 Rises=F Damp=F
 DIIS: error= 1.12D-05 at cycle  19 NSaved=  19.
 NSaved=19 IEnMin=19 EnMin= -1.17493551214756     IErMin=19 ErrMin= 1.12D-05
 ErrMax= 1.12D-05  0.00D+00 EMaxC= 1.00D-01 BMatC= 1.01D-08 BMatP= 2.77D-08
 IDIUse=1 WtCom= 1.00D+00 WtEn= 0.00D+00
 Coeff-Com: -0.333D-05-0.846D-04 0.239D-03-0.512D-03-0.276D-02 0.979D-02
 Coeff-Com: -0.140D-01 0.138D-01-0.372D-02-0.160D-02-0.106D-01 0.667D-02
 Coeff-Com:  0.125D-01-0.497D-01 0.131D+00-0.806D-01-0.179D+00-0.587D+00
 Coeff-Com:  0.176D+01
 Coeff:     -0.333D-05-0.846D-04 0.239D-03-0.512D-03-0.276D-02 0.979D-02
 Coeff:     -0.140D-01 0.138D-01-0.372D-02-0.160D-02-0.106D-01 0.667D-02
 Coeff:      0.125D-01-0.497D-01 0.131D+00-0.806D-01-0.179D+00-0.587D+00
 Coeff:      0.176D+01
 Gap=     0.166 Goal=   None    Shift=    0.000
 RMSDP=2.77D-05 MaxDP=2.03D-04 DE=-4.77D-07 OVMax= 4.81D-04

 Cycle  20  Pass 1  IDiag  3:
 E= -1.17493572934904     Delta-E=       -0.000000217201 Rises=F Damp=F
 DIIS: error= 5.16D-06 at cycle  20 NSaved=  20.
 NSaved=20 IEnMin=20 EnMin= -1.17493572934904     IErMin=20 ErrMin= 5.16D-06
 ErrMax= 5.16D-06  0.00D+00 EMaxC= 1.00D-01 BMatC= 3.18D-09 BMatP= 1.01D-08
 IDIUse=1 WtCom= 1.00D+00 WtEn= 0.00D+00
 Coeff-Com: -0.127D-04 0.122D-03-0.157D-03-0.641D-03 0.399D-02-0.672D-02
 Coeff-Com:  0.494D-02-0.419D-02 0.310D-02-0.117D-02 0.843D-02-0.627D-02
 Coeff-Com:  0.387D-02 0.155D-01-0.516D-01 0.333D-01 0.149D+00-0.578D-01
 Coeff-Com: -0.936D+00 0.184D+01
 Coeff:     -0.127D-04 0.122D-03-0.157D-03-0.641D-03 0.399D-02-0.672D-02
 Coeff:      0.494D-02-0.419D-02 0.310D-02-0.117D-02 0.843D-02-0.627D-02
 Coeff:      0.387D-02 0.155D-01-0.516D-01 0.333D-01 0.149D+00-0.578D-01
 Coeff:     -0.936D+00 0.184D+01
 Gap=     0.166 Goal=   None    Shift=    0.000
 RMSDP=1.98D-05 MaxDP=1.38D-04 DE=-2.17D-07 OVMax= 3.25D-04

 Cycle  21  Pass 1  IDiag  3:
 E= -1.17493580317466     Delta-E=       -0.000000073826 Rises=F Damp=F
 DIIS: error= 2.81D-06 at cycle  21 NSaved=  20.
 NSaved=20 IEnMin=20 EnMin= -1.17493580317466     IErMin=20 ErrMin= 2.81D-06
 ErrMax= 2.81D-06  0.00D+00 EMaxC= 1.00D-01 BMatC= 8.78D-10 BMatP= 3.18D-09
 IDIUse=1 WtCom= 1.00D+00 WtEn= 0.00D+00
 Coeff-Com: -0.499D-04 0.994D-04-0.224D-03-0.459D-03 0.297D-02-0.448D-02
 Coeff-Com:  0.453D-02-0.233D-02 0.231D-02-0.380D-02-0.109D-02 0.160D-02
 Coeff-Com: -0.148D-01 0.317D-01-0.179D-01-0.542D-01-0.594D-01 0.672D+00
 Coeff-Com: -0.163D+01 0.208D+01
 Coeff:     -0.499D-04 0.994D-04-0.224D-03-0.459D-03 0.297D-02-0.448D-02
 Coeff:      0.453D-02-0.233D-02 0.231D-02-0.380D-02-0.109D-02 0.160D-02
 Coeff:     -0.148D-01 0.317D-01-0.179D-01-0.542D-01-0.594D-01 0.672D+00
 Coeff:     -0.163D+01 0.208D+01
 Gap=     0.166 Goal=   None    Shift=    0.000
 RMSDP=1.08D-05 MaxDP=7.45D-05 DE=-7.38D-08 OVMax= 1.60D-04

 Cycle  22  Pass 1  IDiag  3:
 E= -1.17493582375397     Delta-E=       -0.000000020579 Rises=F Damp=F
 DIIS: error= 1.55D-06 at cycle  22 NSaved=  20.
 NSaved=20 IEnMin=20 EnMin= -1.17493582375397     IErMin=20 ErrMin= 1.55D-06
 ErrMax= 1.55D-06  0.00D+00 EMaxC= 1.00D-01 BMatC= 2.20D-10 BMatP= 8.78D-10
 IDIUse=1 WtCom= 1.00D+00 WtEn= 0.00D+00
 Coeff-Com:  0.291D-04 0.103D-03-0.205D-03-0.914D-03 0.145D-02-0.651D-03
 Coeff-Com: -0.129D-02 0.605D-04 0.277D-02 0.102D-02-0.843D-03 0.876D-02
 Coeff-Com: -0.198D-01 0.125D-01 0.234D-01-0.572D-02-0.278D+00 0.900D+00
 Coeff-Com: -0.170D+01 0.206D+01
 Coeff:      0.291D-04 0.103D-03-0.205D-03-0.914D-03 0.145D-02-0.651D-03
 Coeff:     -0.129D-02 0.605D-04 0.277D-02 0.102D-02-0.843D-03 0.876D-02
 Coeff:     -0.198D-01 0.125D-01 0.234D-01-0.572D-02-0.278D+00 0.900D+00
 Coeff:     -0.170D+01 0.206D+01
 Gap=     0.166 Goal=   None    Shift=    0.000
 RMSDP=5.22D-06 MaxDP=3.81D-05 DE=-2.06D-08 OVMax= 1.11D-04

 Cycle  23  Pass 1  IDiag  3:
 E= -1.17493582921588     Delta-E=       -0.000000005462 Rises=F Damp=F
 DIIS: error= 7.62D-07 at cycle  23 NSaved=  20.
 NSaved=20 IEnMin=20 EnMin= -1.17493582921588     IErMin=20 ErrMin= 7.62D-07
 ErrMax= 7.62D-07  0.00D+00 EMaxC= 1.00D-01 BMatC= 4.91D-11 BMatP= 2.20D-10
 IDIUse=1 WtCom= 1.00D+00 WtEn= 0.00D+00
 Coeff-Com: -0.280D-04-0.100D-04 0.294D-03-0.268D-03 0.647D-05 0.710D-03
 Coeff-Com: -0.625D-03-0.107D-02 0.709D-03-0.204D-03-0.422D-02 0.761D-02
 Coeff-Com: -0.245D-02-0.139D-01 0.249D-01 0.308D-01-0.184D+00 0.513D+00
 Coeff-Com: -0.111D+01 0.174D+01
 Coeff:     -0.280D-04-0.100D-04 0.294D-03-0.268D-03 0.647D-05 0.710D-03
 Coeff:     -0.625D-03-0.107D-02 0.709D-03-0.204D-03-0.422D-02 0.761D-02
 Coeff:     -0.245D-02-0.139D-01 0.249D-01 0.308D-01-0.184D+00 0.513D+00
 Coeff:     -0.111D+01 0.174D+01
 Gap=     0.166 Goal=   None    Shift=    0.000
 RMSDP=2.20D-06 MaxDP=1.71D-05 DE=-5.46D-09 OVMax= 4.59D-05

 Cycle  24  Pass 1  IDiag  3:
 E= -1.17493583020939     Delta-E=       -0.000000000994 Rises=F Damp=F
 DIIS: error= 3.60D-07 at cycle  24 NSaved=  20.
 NSaved=20 IEnMin=20 EnMin= -1.17493583020939     IErMin=20 ErrMin= 3.60D-07
 ErrMax= 3.60D-07  0.00D+00 EMaxC= 1.00D-01 BMatC= 1.10D-11 BMatP= 4.91D-11
 IDIUse=1 WtCom= 1.00D+00 WtEn= 0.00D+00
 Coeff-Com:  0.140D-04-0.610D-04 0.158D-04 0.306D-03-0.704D-03 0.107D-02
 Coeff-Com: -0.850D-03 0.907D-03-0.137D-02 0.151D-02 0.320D-03-0.961D-03
 Coeff-Com: -0.210D-02-0.271D-02 0.190D-01-0.384D-01 0.435D-02 0.135D+00
 Coeff-Com: -0.730D+00 0.161D+01
 Coeff:      0.140D-04-0.610D-04 0.158D-04 0.306D-03-0.704D-03 0.107D-02
 Coeff:     -0.850D-03 0.907D-03-0.137D-02 0.151D-02 0.320D-03-0.961D-03
 Coeff:     -0.210D-02-0.271D-02 0.190D-01-0.384D-01 0.435D-02 0.135D+00
 Coeff:     -0.730D+00 0.161D+01
 Gap=     0.166 Goal=   None    Shift=    0.000
 RMSDP=1.41D-06 MaxDP=1.00D-05 DE=-9.94D-10 OVMax= 2.33D-05

 Cycle  25  Pass 1  IDiag  3:
 E= -1.17493583045609     Delta-E=       -0.000000000247 Rises=F Damp=F
 DIIS: error= 1.48D-07 at cycle  25 NSaved=  20.
 NSaved=20 IEnMin=20 EnMin= -1.17493583045609     IErMin=20 ErrMin= 1.48D-07
 ErrMax= 1.48D-07  0.00D+00 EMaxC= 1.00D-01 BMatC= 2.40D-12 BMatP= 1.10D-11
 IDIUse=1 WtCom= 1.00D+00 WtEn= 0.00D+00
 Coeff-Com: -0.924D-05 0.432D-04-0.184D-03 0.378D-03-0.638D-03 0.676D-03
 Coeff-Com: -0.692D-03 0.876D-03-0.121D-02 0.972D-03 0.490D-03 0.580D-03
 Coeff-Com: -0.843D-02 0.140D-01-0.105D-01 0.714D-02-0.104D-01 0.111D+00
 Coeff-Com: -0.662D+00 0.156D+01
 Coeff:     -0.924D-05 0.432D-04-0.184D-03 0.378D-03-0.638D-03 0.676D-03
 Coeff:     -0.692D-03 0.876D-03-0.121D-02 0.972D-03 0.490D-03 0.580D-03
 Coeff:     -0.843D-02 0.140D-01-0.105D-01 0.714D-02-0.104D-01 0.111D+00
 Coeff:     -0.662D+00 0.156D+01
 Gap=     0.166 Goal=   None    Shift=    0.000
 RMSDP=4.21D-07 MaxDP=3.96D-06 DE=-2.47D-10 OVMax= 8.68D-06

 Cycle  26  Pass 1  IDiag  3:
 E= -1.17493583049622     Delta-E=       -0.000000000040 Rises=F Damp=F
 DIIS: error= 8.59D-08 at cycle  26 NSaved=  20.
 NSaved=20 IEnMin=20 EnMin= -1.17493583049622     IErMin=20 ErrMin= 8.59D-08
 ErrMax= 8.59D-08  0.00D+00 EMaxC= 1.00D-01 BMatC= 6.27D-13 BMatP= 2.40D-12
 IDIUse=1 WtCom= 1.00D+00 WtEn= 0.00D+00
 Coeff-Com:  0.291D-04-0.348D-04-0.267D-04 0.227D-03-0.415D-03 0.308D-03
 Coeff-Com: -0.412D-03 0.270D-03 0.764D-04 0.214D-03-0.179D-02 0.718D-02
 Coeff-Com: -0.120D-01 0.163D-01-0.144D-01 0.281D-04 0.357D-01 0.599D-02
 Coeff-Com: -0.556D+00 0.152D+01
 Coeff:      0.291D-04-0.348D-04-0.267D-04 0.227D-03-0.415D-03 0.308D-03
 Coeff:     -0.412D-03 0.270D-03 0.764D-04 0.214D-03-0.179D-02 0.718D-02
 Coeff:     -0.120D-01 0.163D-01-0.144D-01 0.281D-04 0.357D-01 0.599D-02
 Coeff:     -0.556D+00 0.152D+01
 Gap=     0.166 Goal=   None    Shift=    0.000
 RMSDP=1.72D-07 MaxDP=1.42D-06 DE=-4.01D-11 OVMax= 2.97D-06

 Cycle  27  Pass 1  IDiag  3:
 E= -1.17493583050344     Delta-E=       -0.000000000007 Rises=F Damp=F
 DIIS: error= 4.38D-08 at cycle  27 NSaved=  20.
 NSaved=20 IEnMin=20 EnMin= -1.17493583050344     IErMin=20 ErrMin= 4.38D-08
 ErrMax= 4.38D-08  0.00D+00 EMaxC= 1.00D-01 BMatC= 1.62D-13 BMatP= 6.27D-13
 IDIUse=1 WtCom= 1.00D+00 WtEn= 0.00D+00
 Coeff-Com: -0.179D-04 0.656D-04-0.211D-03 0.274D-03-0.134D-03 0.129D-03
 Coeff-Com: -0.357D-03 0.645D-03 0.622D-04-0.109D-02-0.139D-02 0.622D-02
 Coeff-Com: -0.109D-01 0.112D-01-0.111D-02-0.301D-01 0.739D-01 0.950D-01
 Coeff-Com: -0.924D+00 0.178D+01
 Coeff:     -0.179D-04 0.656D-04-0.211D-03 0.274D-03-0.134D-03 0.129D-03
 Coeff:     -0.357D-03 0.645D-03 0.622D-04-0.109D-02-0.139D-02 0.622D-02
 Coeff:     -0.109D-01 0.112D-01-0.111D-02-0.301D-01 0.739D-01 0.950D-01
 Coeff:     -0.924D+00 0.178D+01
 Gap=     0.166 Goal=   None    Shift=    0.000
 RMSDP=1.60D-07 MaxDP=1.32D-06 DE=-7.22D-12 OVMax= 3.73D-06

 Cycle  28  Pass 1  IDiag  3:
 E= -1.17493583050577     Delta-E=       -0.000000000002 Rises=F Damp=F
 DIIS: error= 2.27D-08 at cycle  28 NSaved=  20.
 NSaved=20 IEnMin=20 EnMin= -1.17493583050577     IErMin=20 ErrMin= 2.27D-08
 ErrMax= 2.27D-08  0.00D+00 EMaxC= 1.00D-01 BMatC= 2.52D-14 BMatP= 1.62D-13
 IDIUse=1 WtCom= 1.00D+00 WtEn= 0.00D+00
 Large coefficients: NSaved= 20 BigCof=    0.00 CofMax=   10.00 Det=-7.45D-15
 Inversion failed.  Reducing to 19 matrices.
 Large coefficients: NSaved= 19 BigCof=    0.00 CofMax=   10.00 Det=-7.70D-15
 Inversion failed.  Reducing to 18 matrices.
 Large coefficients: NSaved= 18 BigCof=    0.00 CofMax=   10.00 Det=-9.00D-15
 Inversion failed.  Reducing to 17 matrices.
 Large coefficients: NSaved= 17 BigCof=    0.00 CofMax=   10.00 Det=-9.00D-15
 Inversion failed.  Reducing to 16 matrices.
 Large coefficients: NSaved= 16 BigCof=    0.00 CofMax=   10.00 Det=-9.05D-15
 Inversion failed.  Reducing to 15 matrices.
 Coeff-Com: -0.242D-04-0.252D-04 0.153D-04 0.424D-03-0.116D-02 0.113D-02
 Coeff-Com: -0.333D-03 0.433D-03-0.466D-02 0.128D-01-0.352D-01 0.837D-01
 Coeff-Com: -0.693D-02-0.555D+00 0.150D+01
 Coeff:     -0.242D-04-0.252D-04 0.153D-04 0.424D-03-0.116D-02 0.113D-02
 Coeff:     -0.333D-03 0.433D-03-0.466D-02 0.128D-01-0.352D-01 0.837D-01
 Coeff:     -0.693D-02-0.555D+00 0.150D+01
 Gap=     0.166 Goal=   None    Shift=    0.000
 RMSDP=4.18D-08 MaxDP=2.79D-07 DE=-2.33D-12 OVMax= 6.12D-07

 Cycle  29  Pass 1  IDiag  3:
 E= -1.17493583050623     Delta-E=       -0.000000000000 Rises=F Damp=F
 DIIS: error= 1.41D-08 at cycle  29 NSaved=  16.
 NSaved=16 IEnMin=16 EnMin= -1.17493583050623     IErMin=16 ErrMin= 1.41D-08
 ErrMax= 1.41D-08  0.00D+00 EMaxC= 1.00D-01 BMatC= 5.16D-15 BMatP= 2.52D-14
 IDIUse=1 WtCom= 1.00D+00 WtEn= 0.00D+00
 Large coefficients: NSaved= 16 BigCof=    0.00 CofMax=   10.00 Det=-2.13D-15
 Inversion failed.  Reducing to 15 matrices.
 Coeff-Com: -0.230D-04-0.899D-05 0.144D-04 0.507D-03-0.118D-02 0.128D-02
 Coeff-Com: -0.786D-03 0.193D-02-0.237D-02 0.442D-02-0.341D-01 0.863D-01
 Coeff-Com:  0.183D-01-0.662D+00 0.159D+01
 Coeff:     -0.230D-04-0.899D-05 0.144D-04 0.507D-03-0.118D-02 0.128D-02
 Coeff:     -0.786D-03 0.193D-02-0.237D-02 0.442D-02-0.341D-01 0.863D-01
 Coeff:      0.183D-01-0.662D+00 0.159D+01
 Gap=     0.166 Goal=   None    Shift=    0.000
 RMSDP=1.77D-08 MaxDP=1.41D-07 DE=-4.55D-13 OVMax= 2.39D-07

 Cycle  30  Pass 1  IDiag  3:
 E= -1.17493583050657     Delta-E=       -0.000000000000 Rises=F Damp=F
 DIIS: error= 8.31D-09 at cycle  30 NSaved=  16.
 NSaved=16 IEnMin=16 EnMin= -1.17493583050657     IErMin=16 ErrMin= 8.31D-09
 ErrMax= 8.31D-09  0.00D+00 EMaxC= 1.00D-01 BMatC= 1.42D-15 BMatP= 5.16D-15
 IDIUse=1 WtCom= 1.00D+00 WtEn= 0.00D+00
 Large coefficients: NSaved= 16 BigCof=    0.00 CofMax=   10.00 Det=-2.56D-16
 Inversion failed.  Reducing to 15 matrices.
 Coeff-Com:  0.171D-05-0.130D-04-0.170D-03 0.670D-03-0.114D-02 0.123D-02
 Coeff-Com: -0.219D-02 0.373D-02-0.705D-02 0.229D-01-0.524D-01 0.209D-01
 Coeff-Com:  0.258D+00-0.107D+01 0.183D+01
 Coeff:      0.171D-05-0.130D-04-0.170D-03 0.670D-03-0.114D-02 0.123D-02
 Coeff:     -0.219D-02 0.373D-02-0.705D-02 0.229D-01-0.524D-01 0.209D-01
 Coeff:      0.258D+00-0.107D+01 0.183D+01
 Gap=     0.166 Goal=   None    Shift=    0.000
 RMSDP=1.21D-08 MaxDP=9.02D-08 DE=-3.41D-13 OVMax= 1.69D-07

 Cycle  31  Pass 1  IDiag  3:
 E= -1.17493583050640     Delta-E=        0.000000000000 Rises=F Damp=F
 DIIS: error= 4.34D-09 at cycle  31 NSaved=  16.
 NSaved=16 IEnMin=15 EnMin= -1.17493583050657     IErMin=16 ErrMin= 4.34D-09
 ErrMax= 4.34D-09  0.00D+00 EMaxC= 1.00D-01 BMatC= 5.07D-16 BMatP= 1.42D-15
 IDIUse=1 WtCom= 1.00D+00 WtEn= 0.00D+00
 Large coefficients: NSaved= 16 BigCof=    0.00 CofMax=   10.00 Det=-4.97D-17
 Inversion failed.  Reducing to 15 matrices.
 Coeff-Com:  0.586D-04 0.259D-04-0.459D-03 0.775D-03-0.523D-03 0.431D-03
 Coeff-Com: -0.275D-03 0.163D-02-0.156D-01 0.481D-01-0.682D-01 0.162D-01
 Coeff-Com:  0.414D+00-0.158D+01 0.218D+01
 Coeff:      0.586D-04 0.259D-04-0.459D-03 0.775D-03-0.523D-03 0.431D-03
 Coeff:     -0.275D-03 0.163D-02-0.156D-01 0.481D-01-0.682D-01 0.162D-01
 Coeff:      0.414D+00-0.158D+01 0.218D+01
 Gap=     0.166 Goal=   None    Shift=    0.000
 RMSDP=8.88D-09 MaxDP=7.28D-08 DE= 1.71D-13 OVMax= 1.61D-07

 Cycle  32  Pass 2  IDiag  1:
 SCF Done:  E(RPM6) =  -1.17493583051     A.U. after   32 cycles
            NFock= 31  Conv=0.89D-08     -V/T= 0.9880
 KE=-9.789630016376D+01 PE=-3.882451522500D+02 EE= 2.155303904172D+02
 Leave Link  502 at Fri Jan  7 12:01:45 2022, MaxMem=   402653184 cpu:             238.5 elap:              38.6
 (Enter /work/01114/jfonner/frontera/gaussian/16rC.01/g16/l601.exe)
 Copying SCF densities to generalized density rwf, IOpCl= 0 IROHF=0.

 **********************************************************************

            Population analysis using the SCF Density.

 **********************************************************************

 Alpha  occ. eigenvalues --   -1.68300  -1.64326  -1.57908  -1.56627  -1.51521
 Alpha  occ. eigenvalues --   -1.42766  -1.33746  -1.27546  -1.20668  -1.13968
 Alpha  occ. eigenvalues --   -1.08397  -1.06624  -1.03696  -1.02690  -1.01890
 Alpha  occ. eigenvalues --   -0.96657  -0.95398  -0.95025  -0.91079  -0.89063
 Alpha  occ. eigenvalues --   -0.85861  -0.83920  -0.79320  -0.77035
 Alpha virt. eigenvalues --   -0.61749  -0.53584  -0.52612  -0.48672  -0.47710
 Alpha virt. eigenvalues --   -0.46482  -0.43714  -0.38964  -0.38625  -0.37741
 Alpha virt. eigenvalues --   -0.36389  -0.35543  -0.34934  -0.31450  -0.28316
 Alpha virt. eigenvalues --   -0.27978  -0.26394  -0.24116  -0.23157  -0.18784
          Condensed to atoms (all electrons):
               1          2          3          4          5          6
     1  C    3.514779   0.000000   0.000000   0.000000   0.000000   0.000000
     2  O    0.000000   6.017535   0.000000   0.000000   0.000000   0.000000
     3  N    0.000000   0.000000   5.066359   0.000000   0.000000   0.000000
     4  C    0.000000   0.000000   0.000000   3.710774   0.000000   0.000000
     5  C    0.000000   0.000000   0.000000   0.000000   3.751893   0.000000
     6  O    0.000000   0.000000   0.000000   0.000000   0.000000   6.001916
     7  N    0.000000   0.000000   0.000000   0.000000   0.000000   0.000000
     8  C    0.000000   0.000000   0.000000   0.000000   0.000000   0.000000
     9  C    0.000000   0.000000   0.000000   0.000000   0.000000   0.000000
    10  C    0.000000   0.000000   0.000000   0.000000   0.000000   0.000000
    11  H    0.000000   0.000000   0.000000   0.000000   0.000000   0.000000
    12  H    0.000000   0.000000   0.000000   0.000000   0.000000   0.000000
    13  H    0.000000   0.000000   0.000000   0.000000   0.000000   0.000000
    14  H    0.000000   0.000000   0.000000   0.000000   0.000000   0.000000
               7          8          9         10         11         12
     1  C    0.000000   0.000000   0.000000   0.000000   0.000000   0.000000
     2  O    0.000000   0.000000   0.000000   0.000000   0.000000   0.000000
     3  N    0.000000   0.000000   0.000000   0.000000   0.000000   0.000000
     4  C    0.000000   0.000000   0.000000   0.000000   0.000000   0.000000
     5  C    0.000000   0.000000   0.000000   0.000000   0.000000   0.000000
     6  O    0.000000   0.000000   0.000000   0.000000   0.000000   0.000000
     7  N    5.045765   0.000000   0.000000   0.000000   0.000000   0.000000
     8  C    0.000000   3.603459   0.000000   0.000000   0.000000   0.000000
     9  C    0.000000   0.000000   4.478271   0.000000   0.000000   0.000000
    10  C    0.000000   0.000000   0.000000   2.891887   0.000000   0.000000
    11  H    0.000000   0.000000   0.000000   0.000000   1.006864   0.000000
    12  H    0.000000   0.000000   0.000000   0.000000   0.000000   1.502056
    13  H    0.000000   0.000000   0.000000   0.000000   0.000000   0.000000
    14  H    0.000000   0.000000   0.000000   0.000000   0.000000   0.000000
              13         14
     1  C    0.000000   0.000000
     2  O    0.000000   0.000000
     3  N    0.000000   0.000000
     4  C    0.000000   0.000000
     5  C    0.000000   0.000000
     6  O    0.000000   0.000000
     7  N    0.000000   0.000000
     8  C    0.000000   0.000000
     9  C    0.000000   0.000000
    10  C    0.000000   0.000000
    11  H    0.000000   0.000000
    12  H    0.000000   0.000000
    13  H    0.796539   0.000000
    14  H    0.000000   0.611903
 Mulliken charges:
               1
     1  C    0.485221
     2  O   -0.017535
     3  N   -0.066359
     4  C    0.289226
     5  C    0.248107
     6  O   -0.001916
     7  N   -0.045765
     8  C    0.396541
     9  C   -0.478271
    10  C    1.108113
    11  H   -0.006864
    12  H   -0.502056
    13  H    0.203461
    14  H    0.388097
 Sum of Mulliken charges =   2.00000
 Mulliken charges with hydrogens summed into heavy atoms:
               1
     1  C    0.478357
     2  O   -0.017535
     3  N   -0.066359
     4  C    0.289226
     5  C    0.248107
     6  O   -0.001916
     7  N   -0.045765
     8  C    0.988099
     9  C   -0.980327
    10  C    1.108113
 Charge=              2.0000 electrons
 Dipole moment (field-independent basis, Debye):
    X=             32.5740    Y=              5.8467    Z=            145.8266  Tot=            149.5348
 N-N= 2.694361261660D+02 E-N=-3.882451522077D+02  KE=-9.789630016376D+01
 Leave Link  601 at Fri Jan  7 12:01:46 2022, MaxMem=   402653184 cpu:               1.9 elap:               0.4
 (Enter /work/01114/jfonner/frontera/gaussian/16rC.01/g16/l9999.exe)

 Test job not archived.
 1\1\GINC-C208-012\SP\RPM6\ZDO\C6H4N2O2(2+)\SA748948\07-Jan-2022\0\\#p 
 int=acc2e=12 pm6 charge nosymm\\Atom number=14\\2,1\C,0,4.2710017,0.81
 698251,11.29599614\O,0,4.35898767,2.03299404,11.3669919\N,0,3.49199258
 ,0.10401098,12.0729888\C,0,2.58498638,0.67698929,13.08500481\C,0,3.005
 99759,0.04699653,14.36101452\O,0,2.95799299,-1.16900433,14.51500215\N,
 0,3.48100165,0.88700141,15.26198797\C,0,4.16300283,0.39199376,16.44199
 186\C,0,1.12699955,0.32999747,12.82699481\C,0,0.24799631,0.67499356,14
 .03798795\H,0,4.84396528,0.2433052,10.59777907\H,0,0.80274474,0.843214
 01,11.94587756\H,0,3.64026224,0.79730636,17.28304119\H,0,5.20408581,0.
 63640746,16.40582324\\Version=ES64L-G16RevC.01\HF=-1.1749358\RMSD=8.88
 0e-09\Dipole=1.1100586,0.4550757,6.2445389\PG=C01 [X(C6H4N2O2)]\\@


 Ideas are like rabbits. You get a couple and learn
 how to handle them, and pretty soon you have a dozen.
                                    -- John Steinbeck
 Job cpu time:       0 days  0 hours  4 minutes 55.7 seconds.
 Elapsed time:       0 days  0 hours  0 minutes 50.5 seconds.
 File lengths (MBytes):  RWF=      6 Int=      0 D2E=      0 Chk=      2 Scr=      1
 Normal termination of Gaussian 16 at Fri Jan  7 12:01:47 2022.
