Atom number=12                                                          
SP        RPM6                                                        ZDO                 
Number of atoms                            I               12
Info1-9                                    I   N=           9
          80          79           0           0           0         111
           1           8        2302
Full Title                                 C   N=           2
Atom number=12          
Route                                      C   N=           3
#p int=acc2e=12 pm6 charge nosymm   
Charge                                     I                1
Multiplicity                               I                1
Number of electrons                        I               44
Number of alpha electrons                  I               22
Number of beta electrons                   I               22
Number of basis functions                  I               39
Number of independent functions            I               39
Number of point charges in /Mol/           I                0
Number of translation vectors              I                0
Atomic numbers                             I   N=          12
           6           8           7           6           6           8
           7           6           6           1           1           1
Nuclear charges                            R   N=          12
  4.00000000E+00  6.00000000E+00  5.00000000E+00  4.00000000E+00  4.00000000E+00
  6.00000000E+00  5.00000000E+00  4.00000000E+00  4.00000000E+00  1.00000000E+00
  1.00000000E+00  1.00000000E+00
Current cartesian coordinates              R   N=          36
  1.58740020E+00 -1.61384263E+00  1.28350247E+01  1.94074633E+00 -3.82102870E+00
  1.26989638E+01  3.42041783E+00  3.75940225E-03  1.32715580E+01  6.03010801E+00
 -8.10679355E-01  1.34189358E+01  7.39070487E+00  4.87581636E-01  1.55505414E+01
  7.67984117E+00  2.79301147E+00  1.55486609E+01  8.24674704E+00 -9.95869038E-01
  1.73647080E+01  9.57523496E+00  3.77879462E-02  1.95132973E+01  7.31512168E+00
 -1.94638030E-01  1.08621350E+01 -2.93658526E-01 -8.90462534E-01  1.26711606E+01
  9.18547743E+00 -9.28636589E-01  1.06351380E+01  8.49249071E+00  1.12188095E+00
  2.08327364E+01
Number of symbols in /Mol/                 I                0
Int Atom Types                             I   N=          12
           0           0           0           0           0           0
           0           0           0           0           0           0
Force Field                                I                0
Atom Types                                 C   N=          12
                                                            
                                                            
                        
MM charges                                 R   N=          12
  0.00000000E+00  0.00000000E+00  0.00000000E+00  0.00000000E+00  0.00000000E+00
  0.00000000E+00  0.00000000E+00  0.00000000E+00  0.00000000E+00  0.00000000E+00
  0.00000000E+00  0.00000000E+00
Integer atomic weights                     I   N=          12
          12          16          14          12          12          16
          14          12          12           1           1           1
Real atomic weights                        R   N=          12
  1.20000000E+01  1.59949146E+01  1.40030740E+01  1.20000000E+01  1.20000000E+01
  1.59949146E+01  1.40030740E+01  1.20000000E+01  1.20000000E+01  1.00782504E+00
  1.00782504E+00  1.00782504E+00
Atom fragment info                         I   N=          12
           0           0           0           0           0           0
           0           0           0           0           0           0
Atom residue num                           I   N=          12
           0           0           0           0           0           0
           0           0           0           0           0           0
Nuclear spins                              I   N=          12
           0           0           2           0           0           0
           2           0           0           1           1           1
Nuclear ZEff                               R   N=          12
 -3.90000000E+00 -6.00000000E+00 -4.90000000E+00 -3.90000000E+00 -3.90000000E+00
 -6.00000000E+00 -4.90000000E+00 -3.90000000E+00 -3.90000000E+00 -1.00000000E+00
 -1.00000000E+00 -1.00000000E+00
Nuclear ZNuc                               R   N=          12
  6.00000000E+00  8.00000000E+00  7.00000000E+00  6.00000000E+00  6.00000000E+00
  8.00000000E+00  7.00000000E+00  6.00000000E+00  6.00000000E+00  1.00000000E+00
  1.00000000E+00  1.00000000E+00
Nuclear QMom                               R   N=          12
  0.00000000E+00  0.00000000E+00  2.04400000E+00  0.00000000E+00  0.00000000E+00
  0.00000000E+00  2.04400000E+00  0.00000000E+00  0.00000000E+00  0.00000000E+00
  0.00000000E+00  0.00000000E+00
Nuclear GFac                               R   N=          12
  0.00000000E+00  0.00000000E+00  4.03761000E-01  0.00000000E+00  0.00000000E+00
  0.00000000E+00  4.03761000E-01  0.00000000E+00  0.00000000E+00  2.79284600E+00
  2.79284600E+00  2.79284600E+00
MicOpt                                     I   N=          12
          -1          -1          -1          -1          -1          -1
          -1          -1          -1          -1          -1          -1
Number of residues                         I                0
Number of secondary structures             I                0
Number of contracted shells                I               12
Number of primitive shells                 I               72
Pure/Cartesian d shells                    I                0
Pure/Cartesian f shells                    I                0
Highest angular momentum                   I                1
Largest degree of contraction              I                6
Shell types                                I   N=          12
          -1          -1          -1          -1          -1          -1
          -1          -1          -1           0           0           0
Number of primitives per shell             I   N=          12
           6           6           6           6           6           6
           6           6           6           6           6           6
Shell to atom map                          I   N=          12
           1           2           3           4           5           6
           7           8           9          10          11          12
Primitive exponents                        R   N=          72
  1.14476344E+01  3.29633588E+00  1.29653143E+00  5.92558930E-01  2.94896438E-01
  1.51447622E-01  8.02643074E+01  2.31120341E+01  9.09054165E+00  4.15468650E+00
  2.06764625E+00  1.06186467E+00  1.54719623E+01  4.45513742E+00  1.75231709E+00
  8.00868468E-01  3.98565014E-01  2.04687870E-01  1.14476344E+01  3.29633588E+00
  1.29653143E+00  5.92558930E-01  2.94896438E-01  1.51447622E-01  1.14476344E+01
  3.29633588E+00  1.29653143E+00  5.92558930E-01  2.94896438E-01  1.51447622E-01
  8.02643074E+01  2.31120341E+01  9.09054165E+00  4.15468650E+00  2.06764625E+00
  1.06186467E+00  1.54719623E+01  4.45513742E+00  1.75231709E+00  8.00868468E-01
  3.98565014E-01  2.04687870E-01  1.14476344E+01  3.29633588E+00  1.29653143E+00
  5.92558930E-01  2.94896438E-01  1.51447622E-01  1.14476344E+01  3.29633588E+00
  1.29653143E+00  5.92558930E-01  2.94896438E-01  1.51447622E-01  4.39461478E+00
  1.26542531E+00  4.97723458E-01  2.27476537E-01  1.13207340E-01  5.81389949E-02
  4.39461478E+00  1.26542531E+00  4.97723458E-01  2.27476537E-01  1.13207340E-01
  5.81389949E-02  4.39461478E+00  1.26542531E+00  4.97723458E-01  2.27476537E-01
  1.13207340E-01  5.81389949E-02
Contraction coefficients                   R   N=          72
 -9.73739553E-03 -7.26587678E-02 -1.71615520E-01  1.28977624E-01  7.28861451E-01
  3.01331742E-01 -9.73739553E-03 -7.26587678E-02 -1.71615520E-01  1.28977624E-01
  7.28861451E-01  3.01331742E-01 -9.73739553E-03 -7.26587678E-02 -1.71615520E-01
  1.28977624E-01  7.28861451E-01  3.01331742E-01 -9.73739553E-03 -7.26587678E-02
 -1.71615520E-01  1.28977624E-01  7.28861451E-01  3.01331742E-01 -9.73739553E-03
 -7.26587678E-02 -1.71615520E-01  1.28977624E-01  7.28861451E-01  3.01331742E-01
 -9.73739553E-03 -7.26587678E-02 -1.71615520E-01  1.28977624E-01  7.28861451E-01
  3.01331742E-01 -9.73739553E-03 -7.26587678E-02 -1.71615520E-01  1.28977624E-01
  7.28861451E-01  3.01331742E-01 -9.73739553E-03 -7.26587678E-02 -1.71615520E-01
  1.28977624E-01  7.28861451E-01  3.01331742E-01 -9.73739553E-03 -7.26587678E-02
 -1.71615520E-01  1.28977624E-01  7.28861451E-01  3.01331742E-01 -9.73739553E-03
 -7.26587678E-02 -1.71615520E-01  1.28977624E-01  7.28861451E-01  3.01331742E-01
 -9.73739553E-03 -7.26587678E-02 -1.71615520E-01  1.28977624E-01  7.28861451E-01
  3.01331742E-01 -9.73739553E-03 -7.26587678E-02 -1.71615520E-01  1.28977624E-01
  7.28861451E-01  3.01331742E-01
P(S=P) Contraction coefficients            R   N=          72
 -8.10494336E-03 -1.71547892E-02  7.36978576E-02  3.96514999E-01  4.97808488E-01
  1.17482582E-01 -8.10494336E-03 -1.71547892E-02  7.36978576E-02  3.96514999E-01
  4.97808488E-01  1.17482582E-01 -8.10494336E-03 -1.71547892E-02  7.36978576E-02
  3.96514999E-01  4.97808488E-01  1.17482582E-01 -8.10494336E-03 -1.71547892E-02
  7.36978576E-02  3.96514999E-01  4.97808488E-01  1.17482582E-01 -8.10494336E-03
 -1.71547892E-02  7.36978576E-02  3.96514999E-01  4.97808488E-01  1.17482582E-01
 -8.10494336E-03 -1.71547892E-02  7.36978576E-02  3.96514999E-01  4.97808488E-01
  1.17482582E-01 -8.10494336E-03 -1.71547892E-02  7.36978576E-02  3.96514999E-01
  4.97808488E-01  1.17482582E-01 -8.10494336E-03 -1.71547892E-02  7.36978576E-02
  3.96514999E-01  4.97808488E-01  1.17482582E-01 -8.10494336E-03 -1.71547892E-02
  7.36978576E-02  3.96514999E-01  4.97808488E-01  1.17482582E-01  0.00000000E+00
  0.00000000E+00  0.00000000E+00  0.00000000E+00  0.00000000E+00  0.00000000E+00
  0.00000000E+00  0.00000000E+00  0.00000000E+00  0.00000000E+00  0.00000000E+00
  0.00000000E+00  0.00000000E+00  0.00000000E+00  0.00000000E+00  0.00000000E+00
  0.00000000E+00  0.00000000E+00
Coordinates of each shell                  R   N=          36
  1.58740020E+00 -1.61384263E+00  1.28350247E+01  1.94074633E+00 -3.82102870E+00
  1.26989638E+01  3.42041783E+00  3.75940225E-03  1.32715580E+01  6.03010801E+00
 -8.10679355E-01  1.34189358E+01  7.39070487E+00  4.87581636E-01  1.55505414E+01
  7.67984117E+00  2.79301147E+00  1.55486609E+01  8.24674704E+00 -9.95869038E-01
  1.73647080E+01  9.57523496E+00  3.77879462E-02  1.95132973E+01  7.31512168E+00
 -1.94638030E-01  1.08621350E+01 -2.93658526E-01 -8.90462534E-01  1.26711606E+01
  9.18547743E+00 -9.28636589E-01  1.06351380E+01  8.49249071E+00  1.12188095E+00
  2.08327364E+01
Num ILSW                                   I              100
ILSW                                       I   N=         100
           0           0           0           0           2           0
           0           0           0           0           0          -1
           5           0           0           0           0           0
           0           0           0           0           0           0
           1           1           0           0           0           0
           0           0      100000           0          -1           0
           0           0           0           0           0           0
           0           0           0          40           0           0
           0 -2000000000           1           0           0           0
           0           0           4          52           0           0
           0           1           0           0           0           0
           0           0           0          12           0           1
           0           0           0           0           0           0
           0           0           0           0           0           0
           0           0           0           0           0           0
           0           0           0           0           0           0
           0           0           0           0
Num RLSW                                   I               52
RLSW                                       R   N=          52
  1.00000000E+00  1.00000000E+00  1.00000000E+00  1.00000000E+00  1.00000000E+00
  0.00000000E+00  0.00000000E+00  1.00000000E+00  0.00000000E+00  0.00000000E+00
  0.00000000E+00  0.00000000E+00  1.00000000E+00  0.00000000E+00  0.00000000E+00
  0.00000000E+00  0.00000000E+00  1.00000000E+00  0.00000000E+00  0.00000000E+00
  0.00000000E+00  0.00000000E+00  1.00000000E+00  0.00000000E+00  0.00000000E+00
  0.00000000E+00  0.00000000E+00  1.00000000E+00  0.00000000E+00  0.00000000E+00
  0.00000000E+00  0.00000000E+00  1.00000000E+00  0.00000000E+00  0.00000000E+00
  0.00000000E+00  0.00000000E+00  0.00000000E+00  1.00000000E+00  1.00000000E+00
  0.00000000E+00  1.00000000E+00  0.00000000E+00  0.00000000E+00  0.00000000E+00
  0.00000000E+00  0.00000000E+00  0.00000000E+00  0.00000000E+00  0.00000000E+00
  0.00000000E+00  0.00000000E+00
MxBond                                     I                3
NBond                                      I   N=          12
           3           1           2           3           3           1
           2           2           2           1           1           1
IBond                                      I   N=          36
           2           3          10           1           0           0
           1           4           0           3           5           9
           4           6           7           5           0           0
           5           8           0           7          12           0
           4          11           0           1           0           0
           9           0           0           8           0           0
RBond                                      R   N=          36
  2.00000000E+00  1.50000000E+00  1.00000000E+00  2.00000000E+00  0.00000000E+00
  0.00000000E+00  1.50000000E+00  1.00000000E+00  0.00000000E+00  1.00000000E+00
  1.00000000E+00  1.00000000E+00  1.00000000E+00  2.00000000E+00  1.50000000E+00
  2.00000000E+00  0.00000000E+00  0.00000000E+00  1.50000000E+00  1.00000000E+00
  0.00000000E+00  1.00000000E+00  1.00000000E+00  0.00000000E+00  1.00000000E+00
  1.00000000E+00  0.00000000E+00  1.00000000E+00  0.00000000E+00  0.00000000E+00
  1.00000000E+00  0.00000000E+00  0.00000000E+00  1.00000000E+00  0.00000000E+00
  0.00000000E+00
Virial Ratio                               R      9.664788439356879E-01
SCF Energy                                 R     -3.138935518571202E+00
Total Energy                               R     -3.138935518571202E+00
RMS Density                                R      4.651070033843609E-09
Job Status                                 I                1
Nuclear derivative order                   I                0
External E-field                           R   N=          35
  0.00000000E+00  0.00000000E+00  0.00000000E+00  0.00000000E+00  0.00000000E+00
  0.00000000E+00  0.00000000E+00  0.00000000E+00  0.00000000E+00  0.00000000E+00
  0.00000000E+00  0.00000000E+00  0.00000000E+00  0.00000000E+00  0.00000000E+00
  0.00000000E+00  0.00000000E+00  0.00000000E+00  0.00000000E+00  0.00000000E+00
  0.00000000E+00  0.00000000E+00  0.00000000E+00  0.00000000E+00  0.00000000E+00
  0.00000000E+00  0.00000000E+00  0.00000000E+00  0.00000000E+00  0.00000000E+00
  0.00000000E+00  0.00000000E+00  0.00000000E+00  0.00000000E+00  0.00000000E+00
IOpCl                                      I                0
IROHF                                      I                0
Alpha Orbital Energies                     R   N=          39
 -1.43018183E+00 -1.34499901E+00 -1.33233625E+00 -1.23924406E+00 -1.16158077E+00
 -1.07150690E+00 -9.50590348E-01 -9.34935294E-01 -8.51378339E-01 -8.16343764E-01
 -7.85219701E-01 -7.55840253E-01 -7.19342258E-01 -6.96609088E-01 -6.70899949E-01
 -6.58901422E-01 -6.40011983E-01 -6.12644241E-01 -5.82644719E-01 -5.29115819E-01
 -5.02682914E-01 -4.87068156E-01 -3.22800897E-01 -2.64954970E-01 -2.25898459E-01
 -1.82914135E-01 -1.76562458E-01 -1.50251316E-01 -8.40512967E-02 -7.58197699E-02
 -7.03638759E-02 -5.23698378E-02 -4.47696136E-02 -4.34522431E-02 -3.18724785E-02
  4.31892089E-02  5.75196811E-02  7.09678457E-02  1.53346044E-01
Alpha MO coefficients                      R   N=        1521
 -1.23946253E-03  4.30529573E-03  1.83038391E-03  2.28698055E-03 -2.53373086E-03
  6.79458777E-04 -1.08051372E-03  4.81997485E-04  2.72764241E-02  2.51368816E-02
  4.29862927E-04  1.08449675E-02  1.06943913E-01  4.54683956E-02  5.02167910E-02
  7.00112404E-02  5.18667332E-01  9.01591452E-02  1.00479412E-01  1.29445680E-01
  4.25054320E-01 -1.37220384E-02 -2.68034012E-01  3.23073631E-02  5.41352871E-01
 -5.88908671E-03  2.15645072E-01 -5.48381908E-02  2.16348378E-01 -8.51477431E-02
 -1.28772992E-02 -1.27000943E-01  2.43731388E-02 -1.29303872E-03  2.58421402E-03
  2.64244865E-02 -1.44265379E-03  9.41109024E-03  7.38155043E-02  5.25683030E-01
  1.57285146E-01 -1.29212290E-01  1.77521064E-02  4.61631901E-01 -1.17737021E-02
  3.00180207E-01  2.58119929E-02  4.86797867E-01 -4.82558477E-02 -1.93798676E-01
 -3.15970476E-02  1.88808993E-01 -1.26006595E-01  1.72603000E-02 -1.62161705E-02
  3.64718302E-02 -4.23702026E-02  2.29265004E-02 -5.37895889E-02  5.18498682E-02
 -1.39403823E-02 -2.21337792E-02 -1.35744760E-02 -8.24484435E-02 -1.54524370E-02
 -2.07441555E-02 -1.71589041E-02 -5.00193864E-02  1.54046567E-02  6.41013832E-03
  2.15103071E-02  4.91093066E-02 -3.15593719E-02 -6.09316525E-03  3.18749379E-02
  1.48393328E-01  8.66778173E-03 -1.68556696E-02 -7.86892327E-02 -1.68652479E-02
  2.97679597E-02 -1.55524048E-03 -8.14910945E-02  4.16694491E-03 -4.82852179E-02
 -4.01628150E-03 -3.09742417E-02  2.83111369E-02  3.17474603E-02  4.92246592E-03
  1.35032171E-02  1.40420800E-02  4.91256129E-02 -1.12503751E-02  8.58726737E-02
 -3.55512069E-02  3.85344674E-01 -1.56078695E-01  6.23508107E-01 -4.30583055E-02
 -1.86089501E-01 -4.05444178E-02 -5.14595420E-01 -2.99321582E-02 -9.24331349E-02
 -3.97214403E-02 -2.53629509E-01  8.37925230E-02  4.04331531E-02  1.11161562E-01
  2.09847915E-02 -2.01328988E-03  7.53343409E-03  1.33256654E-02 -2.30874414E-02
  5.39117103E-03 -8.44419452E-02  7.47615903E-02 -1.07075181E-01 -3.63410705E-01
 -4.56522118E-02  5.30312735E-01 -7.29732585E-02  1.63188222E-01  3.75506477E-03
 -5.18304579E-01 -8.10044517E-02  7.04593946E-02  4.62908464E-03 -3.60105480E-01
  9.46813825E-02 -7.28960868E-02 -9.47321668E-04 -1.18932067E-01  8.27674346E-02
  1.17962777E-01  9.39186148E-02  1.43478827E-01  2.20440109E-02  3.98074830E-03
  2.97694318E-02  1.51848878E-02  5.00651947E-02  1.76364832E-02  8.10111959E-02
  8.42834952E-02 -1.88967898E-02 -4.45566072E-03 -1.95398444E-02 -1.31014746E-01
  4.58904257E-02  1.03930238E-02 -7.79257677E-02  2.41651589E-02 -3.28336162E-02
  3.40344642E-02  1.36026403E-01  5.29618551E-02  2.23061538E-01  2.93959108E-02
 -2.44634955E-01  2.66712551E-02 -1.13137695E-02  3.95001123E-03  2.50536048E-01
 -1.81766336E-01 -6.75519589E-02 -3.96455541E-02 -3.10757793E-01 -1.66959148E-01
 -6.55082026E-02 -8.10698544E-02 -3.44898621E-01  5.94334141E-02  2.35467427E-01
  1.09593664E-01  2.39597766E-01  2.23296085E-02  7.87822496E-02  4.45244162E-02
  2.68753280E-02  1.66934554E-01  1.42179317E-02  3.33705952E-01  3.87673861E-01
 -7.93106605E-02 -1.83014583E-02 -4.49171721E-02 -1.66139363E-01  4.41157992E-03
  1.36175793E-02 -9.16616258E-02  7.05837112E-02 -5.98647603E-02  1.73840852E-01
 -2.00403849E-01  1.65304599E-02 -1.66923300E-01 -3.11421917E-02  1.65414348E-01
  9.56115598E-03 -4.06463325E-02 -1.01400567E-02 -5.10511580E-02  2.78776670E-01
  4.57199243E-02  1.56944662E-04  3.69566485E-01  2.96290812E-02  7.65008062E-02
 -1.49504945E-01 -1.09438664E-01 -1.03332470E-01  7.15169001E-02 -2.24196588E-01
  2.09236168E-02 -3.12832579E-02  4.03111162E-02 -8.05993003E-02 -9.56031907E-02
  1.41566822E-01 -4.42283196E-02  2.99713773E-01  4.54477605E-01 -6.70166068E-02
  9.05407150E-03  3.13266948E-02  3.55355965E-01 -4.13380955E-02 -2.67790110E-02
  1.24996251E-01 -1.26167659E-01  1.15731437E-01  2.43245381E-01  2.94962473E-01
 -1.62513492E-01  1.45819061E-01 -2.59530007E-02 -2.02085479E-01 -8.42750509E-02
  1.10397317E-01 -1.13665387E-02 -1.95415825E-01 -2.77714899E-01 -1.33985176E-02
 -1.08212523E-01  1.89021207E-04  3.03743140E-01 -5.00700492E-02 -2.46395923E-01
 -5.84459528E-02  1.47457209E-01 -6.17108880E-03 -4.33447330E-02  4.29812871E-02
  8.67266739E-02  2.89952578E-02 -3.39414742E-02  6.55716510E-02  8.03425421E-02
 -2.05603742E-02 -1.46384105E-02 -6.74526688E-02  2.29961406E-02 -4.75204598E-02
 -6.77749203E-02  5.57761982E-01  7.66615587E-02 -5.48251869E-02  6.55967959E-02
  2.59354188E-01  2.48062599E-01 -8.28740973E-02  2.03717571E-01 -1.47773238E-01
  8.66558278E-02  1.55557633E-02 -1.30668696E-01 -8.01239419E-02  7.73921192E-02
  9.45604274E-03 -1.20605596E-01 -1.74856601E-01  1.65722597E-02  3.79111359E-02
 -1.96686194E-02  1.64872770E-01  4.40843542E-02  2.03301343E-01  2.81309859E-01
 -9.17850220E-02 -2.07000286E-02 -1.23704041E-01 -2.44473257E-01 -6.55369515E-02
 -2.14745533E-01 -4.54394161E-02 -3.14890473E-01 -1.10316725E-01  7.94291291E-02
 -8.17370722E-02  3.48023569E-01 -2.03054165E-02  2.16898706E-01  2.75563631E-01
 -1.52667348E-01  3.26448441E-02  2.02134472E-02 -3.24908681E-03  1.95562579E-01
 -4.80558683E-02  3.63252138E-01 -1.38338716E-01  2.23675736E-01 -1.25119540E-02
 -8.28946875E-03  1.06540051E-01  1.34739563E-01 -7.33136349E-02 -9.60926153E-03
  9.52927144E-02 -2.30318296E-02 -6.02673157E-02 -8.38227703E-02 -1.45115786E-01
 -7.61085000E-02 -9.78451842E-02 -2.20931731E-01 -1.79670651E-02  1.99040523E-01
  5.44115103E-03  3.73822535E-01 -2.54152981E-02  1.26501077E-01 -3.17564675E-02
  2.59014055E-01 -1.71667775E-01 -1.90949034E-01  2.38918652E-01 -2.74095807E-01
  4.14688637E-02 -7.54436622E-03  2.67189819E-01  2.26876590E-01  2.92941894E-01
  4.78358945E-02 -3.75108934E-02 -5.56511303E-02 -2.04642861E-01  1.43951311E-01
  2.18358252E-01  6.09248026E-02 -1.05504399E-01 -1.13184072E-02  4.20747405E-03
 -7.40790339E-02 -6.62422637E-02  4.97133930E-02  6.84926607E-03 -7.93374683E-02
  5.03664314E-02 -2.23322794E-02  4.16948514E-02  1.48336395E-01  1.22984255E-02
 -6.55721628E-02  8.35560554E-02 -1.16849088E-01 -1.63121866E-01 -3.19505408E-01
  6.47212142E-02  4.44171774E-01 -4.04401414E-02  5.54088860E-01  5.17225189E-02
  1.34247144E-01 -2.83644194E-01 -1.53952946E-01 -1.51073717E-01  2.38238781E-02
 -5.27832650E-02  1.01862132E-01  2.55577721E-01 -4.65169498E-02 -1.63859997E-02
 -2.31190615E-02  2.50625463E-02  9.38286319E-02 -2.27697011E-02  1.89726003E-01
 -5.60078435E-02  2.21981494E-01  3.10689565E-02  4.29870865E-02  6.78088341E-02
  1.52214274E-01 -4.31490426E-02  2.49364736E-02  2.18392214E-02 -1.60125379E-01
 -8.11398668E-02 -1.34239451E-02  7.08136100E-03  1.58021911E-01 -6.52386491E-02
  7.15543350E-02  2.01956176E-02  3.72678069E-01 -1.81640669E-01 -3.11368065E-01
  1.21040595E-01  4.13185260E-01  1.03128086E-01 -3.06233481E-01 -8.15374648E-04
  2.91061359E-01 -1.22537579E-01 -2.72089366E-01  1.48634424E-01  1.81805864E-01
  2.09653487E-02  3.69736733E-02 -1.50939191E-01  1.47648730E-02 -1.21588954E-02
  4.58987654E-02 -1.64656764E-01 -5.10704517E-02  5.02479008E-02  5.81044928E-02
 -3.38677780E-01 -7.62044347E-02 -1.58798380E-01 -1.19085667E-01 -2.54247563E-01
  8.29836065E-02 -1.14576871E-01  3.81241369E-03  3.61361455E-01  9.89311138E-02
 -9.54528299E-02  1.66621433E-01 -2.12307457E-01  2.89332681E-02 -1.91163918E-01
 -6.39544877E-02  2.81396288E-01  3.76595521E-03  1.01274140E-01 -4.43174270E-03
  3.06638146E-01 -7.97626056E-03  1.02852636E-01 -1.06320514E-01  1.67213021E-01
  1.86760907E-01 -1.65577289E-01  3.49447201E-02  9.91113500E-02  8.88254501E-02
 -5.79463041E-02 -1.61721464E-01 -2.12093297E-01  1.41392620E-02  1.07520074E-01
  2.42064228E-01 -1.69216348E-01 -1.15885981E-02  1.00067561E-01  3.08484365E-01
 -1.55622563E-01 -6.61273306E-02 -3.61555792E-01  2.11845781E-01  4.52449974E-01
 -2.26112117E-02 -3.34725045E-01  4.27145676E-02 -3.64275114E-01 -1.29935797E-01
  1.94574935E-01  2.01054985E-02 -2.00178408E-01 -7.56673079E-02  5.17351928E-03
 -4.10128442E-02  3.32578069E-02  3.98023081E-02 -2.27911560E-02 -4.45109376E-02
 -5.01019381E-02  9.39020347E-02 -4.34249378E-02 -1.65688419E-02  5.62279909E-02
  8.22484520E-02 -1.43716731E-02 -3.19502237E-02 -1.47354837E-02 -5.14722283E-02
 -1.37742349E-01 -1.30023614E-01 -6.17202223E-02  1.13817502E-01 -1.92542187E-01
 -1.12947907E-01 -3.19816669E-02  1.00339035E-02 -7.99321133E-02 -1.39516085E-01
  4.76214910E-01 -1.30058659E-01 -1.04661039E-01  1.06942257E-01  5.24156598E-01
 -3.27606853E-02  8.23839564E-02 -9.44109197E-02  4.24030393E-01  4.78734579E-02
 -1.06128486E-01 -6.84881011E-02  1.59061675E-01 -7.51389444E-03  2.31755119E-02
 -3.13443801E-02  5.06780688E-02  2.43294438E-02  7.95852982E-02  5.90734201E-02
  1.35889999E-01 -1.26113465E-01  1.56247926E-01  1.63766794E-01 -3.28532192E-02
  5.97513523E-02  9.45991993E-02  1.86098925E-02 -1.43442002E-01  9.23165617E-02
  1.43542718E-01 -2.86296727E-02 -9.54945666E-02 -1.32605097E-02  1.17750418E-01
 -7.28441602E-02 -1.52095247E-04  2.51902285E-02  1.88998306E-01 -1.22287475E-02
  2.10676483E-01  1.00522796E-01 -2.77764963E-01 -5.26525095E-02 -3.49418845E-02
 -2.23725487E-01 -9.22553905E-03 -5.16604201E-02  1.91213791E-01  2.60357054E-01
 -8.21730482E-02 -1.80745151E-03  4.67609743E-02 -1.35887216E-01 -1.13002035E-01
  6.68538787E-02  7.59765028E-02 -1.82884998E-01  2.30957104E-01  2.99737858E-01
 -2.39522886E-01  1.86829358E-01  3.72282144E-01  1.20722296E-02  9.88998598E-02
  1.19829240E-01  4.14425548E-02 -2.96666329E-01 -1.28325840E-01 -1.03193852E-01
 -6.16226648E-02  1.81174060E-01  4.96541399E-02 -1.06302042E-01 -1.45828191E-01
 -4.65910292E-04  4.36999635E-02 -9.72446781E-02 -2.41467332E-01 -1.28632736E-01
 -4.99865934E-03  2.18180106E-01 -3.03576903E-01  4.58880020E-02  1.12770727E-01
  4.73805191E-02 -3.30327390E-02 -1.62131482E-01 -1.40010520E-01  9.03500143E-02
  1.96072496E-01  5.45420097E-02 -1.17523160E-01 -6.63238258E-02  1.69397961E-02
  3.76329389E-02 -3.24473602E-01  1.21048224E-01  3.51544010E-02 -5.11517876E-02
  3.22675428E-01 -1.29603004E-02 -2.77424463E-01  1.93059235E-01  3.56791730E-01
 -2.60135570E-04 -9.63321249E-02  1.32870697E-01  2.24044937E-01  3.29825127E-02
 -2.30913500E-01 -5.33075859E-02  1.77463808E-01 -7.04469289E-02 -3.66552920E-03
  3.62157077E-02 -4.66834563E-02 -1.43749550E-01 -5.88228035E-02  4.56415032E-03
  1.18265429E-01 -2.12777853E-01  4.42731848E-02  2.99437861E-02  4.27093545E-02
  2.91672689E-02 -5.53171754E-02 -1.61915435E-02  8.68253068E-02  2.24794216E-01
  4.79860400E-02  1.31348024E-02 -1.20030506E-01 -1.07316791E-01  6.05060601E-02
  2.90617760E-01  1.93384099E-01 -2.73128496E-01 -1.69281647E-01 -1.88489033E-01
  4.96437848E-01  2.65075472E-01 -1.14319452E-01 -3.08790155E-01  1.04157356E-01
 -2.06227047E-01  4.51962986E-02  1.88825928E-01  3.24851936E-02 -1.35569980E-01
 -3.99025384E-02  1.18077742E-01 -4.77869647E-02  6.48866252E-03 -3.86460694E-02
  7.27407149E-02 -1.29063803E-01  6.13434730E-02  2.18108834E-02 -1.15431015E-01
 -2.76532286E-01 -4.01000010E-02  2.31869166E-02 -1.40853542E-01  1.18310885E-01
  1.63290186E-01 -3.45259315E-02 -2.21030678E-01  2.74377096E-01  3.82397212E-02
 -3.40339196E-03 -1.35045878E-02 -2.07239776E-02 -6.73760375E-03  3.92314139E-01
 -1.44157981E-01  5.03303129E-01 -3.14889484E-02 -9.02192325E-03 -2.79142672E-01
  1.61405158E-01  2.36164249E-02 -1.55629279E-02 -1.62935866E-01  3.89107103E-02
 -3.34372273E-02  2.59803968E-01 -1.47012006E-01 -9.53414357E-02  7.79881478E-02
  1.57417003E-01 -1.67737323E-02 -4.05887974E-02  9.98152033E-02 -1.54856263E-01
  1.26154533E-02 -1.20242838E-01 -6.65045154E-02  3.08034228E-01  5.10156444E-02
  1.98426863E-01 -1.36165352E-01  4.07259985E-01 -3.35453747E-03 -1.13924236E-01
  2.96367481E-01  3.76073264E-01  3.72118634E-03  5.59730345E-02 -3.47881404E-02
 -6.64513905E-02 -4.08683672E-02  1.79571942E-02  2.08278073E-01  6.14435519E-02
  4.34305059E-01 -3.21547386E-02 -1.45867318E-02 -1.12090149E-01  8.54222497E-02
  1.73257378E-02 -7.97462417E-03 -8.05000958E-02  2.64293818E-03  2.13857512E-02
 -1.23701843E-01  1.72881887E-01  1.05609793E-01 -1.98501223E-01 -1.04360139E-01
 -1.60033113E-02  1.04268599E-01 -1.74350301E-02  1.43947962E-01  7.67194594E-03
  6.20024660E-02  5.08953139E-01 -1.00076030E-01  1.63642735E-01 -2.27541941E-01
  1.39058556E-01 -1.29577897E-01 -1.47573134E-01 -8.22136931E-02 -2.02693050E-01
  3.02203374E-01  1.03650757E-01  8.14270964E-02 -8.16772531E-02 -6.20846117E-02
 -3.91252375E-02  1.37136943E-02  1.77096883E-01  4.96864972E-02  9.54635218E-02
 -2.81965476E-02 -1.22819383E-02 -3.10951989E-02  2.01869448E-02  4.70686452E-02
  5.44672217E-02 -4.61114973E-02 -2.21103879E-02  1.95243198E-01 -2.18582150E-01
  3.78855526E-01 -2.16452725E-01  2.24319879E-01 -9.64728786E-02 -3.05293737E-02
  1.01960194E-02 -3.75503502E-02 -1.64250676E-04  6.03465307E-02  2.40574546E-04
  2.91244456E-01  8.53710577E-02 -4.42807972E-01 -3.57152253E-03 -9.24204817E-02
  4.78883191E-02  7.39309023E-01  2.37410645E-02  1.90157745E-02 -8.72623832E-04
 -6.39486283E-02 -9.79821604E-02  5.66302283E-02  7.55546685E-02  6.75255478E-02
 -1.68902949E-02 -4.57138426E-02 -2.86480216E-02 -6.67981584E-02  4.92676618E-02
  3.02536414E-02  1.41135018E-02 -5.35692743E-02 -4.26161375E-02 -1.33554567E-02
  5.64919278E-02  3.31461655E-02  1.00038513E-01 -2.23802914E-01  1.09817158E-01
  9.22747652E-02  6.86870467E-02 -1.19815672E-01  3.22481025E-02  1.32264190E-02
 -1.12058034E-01 -1.26238656E-02 -2.55294281E-02 -1.13364060E-02  6.17230766E-01
  1.60809890E-01  1.71518272E-01  7.42952666E-02  1.51489006E-01  4.09062003E-01