Atom number=26                                                          
SP        RPM6                                                        ZDO                 
Number of atoms                            I               26
Info1-9                                    I   N=           9
          82          81           0           0           0         111
           1           8        2302
Full Title                                 C   N=           2
Atom number=26          
Route                                      C   N=           3
#p int=acc2e=12 pm6 charge nosymm   
Charge                                     I                1
Multiplicity                               I                1
Number of electrons                        I              104
Number of alpha electrons                  I               52
Number of beta electrons                   I               52
Number of basis functions                  I               89
Number of independent functions            I               89
Number of point charges in /Mol/           I                0
Number of translation vectors              I                0
Atomic numbers                             I   N=          26
           6           8           7           6           6           8
           7           6           6           8           6           8
           7           6           6           8           7           6
           6           8           6           1           1           1
           1           1
Nuclear charges                            R   N=          26
  4.00000000E+00  6.00000000E+00  5.00000000E+00  4.00000000E+00  4.00000000E+00
  6.00000000E+00  5.00000000E+00  4.00000000E+00  4.00000000E+00  6.00000000E+00
  4.00000000E+00  6.00000000E+00  5.00000000E+00  4.00000000E+00  4.00000000E+00
  6.00000000E+00  5.00000000E+00  4.00000000E+00  4.00000000E+00  6.00000000E+00
  4.00000000E+00  1.00000000E+00  1.00000000E+00  1.00000000E+00  1.00000000E+00
  1.00000000E+00
Current cartesian coordinates              R   N=          78
  5.68051218E+00  8.88105705E-02  2.71383843E+01  5.58979663E+00 -2.20909802E+00
  2.74293788E+01  6.57813976E+00  1.67618974E+00  2.88409774E+01  7.86693520E+00
  7.40760849E-01  3.10708616E+01  6.47042229E+00  1.82356233E+00  3.33177433E+01
  5.92618759E+00  3.98732110E+00  3.32818450E+01  5.99611037E+00  2.43768982E-01
  3.52377220E+01  4.83581805E+00  9.75114686E-01  3.76112468E+01  1.07487535E+01
  1.41732160E+00  3.09707433E+01  1.18372435E+01  2.45675281E-01  2.87918563E+01
  6.33055986E+00 -2.30556300E-01  3.97107163E+01  6.36082101E+00 -2.53036312E+00
  3.99488078E+01  7.68551460E+00  1.30011814E+00  4.11355373E+01  9.23698937E+00
  3.87386977E-01  4.31821289E+01  8.22031928E+00  1.45321912E+00  4.56822221E+01
  7.86317236E+00  3.74357546E+00  4.58617493E+01  7.68175280E+00 -2.26734953E-01
  4.75284848E+01  7.02979407E+00  5.91495011E-01  5.01061053E+01  2.15047670E+00
 -3.96883682E-02  3.77624215E+01  7.42660628E-01  7.44574165E-01  3.55722016E+01
  9.18403760E-01  9.46757758E-01  3.99998346E+01  5.10687946E+00  9.47183098E-01
  2.53998061E+01  1.17421866E+01  6.84445650E-01  3.25721476E+01  1.11691030E+01
  9.23493794E-01  4.29212868E+01  8.64380069E+00  3.62788620E-01  5.13024280E+01
  5.41247454E+00 -3.82081930E-01  5.08306310E+01
Number of symbols in /Mol/                 I                0
Int Atom Types                             I   N=          26
           0           0           0           0           0           0
           0           0           0           0           0           0
           0           0           0           0           0           0
           0           0           0           0           0           0
           0           0
Force Field                                I                0
Atom Types                                 C   N=          26
                                                            
                                                            
                                                            
                                                            
                                                            
            
MM charges                                 R   N=          26
  0.00000000E+00  0.00000000E+00  0.00000000E+00  0.00000000E+00  0.00000000E+00
  0.00000000E+00  0.00000000E+00  0.00000000E+00  0.00000000E+00  0.00000000E+00
  0.00000000E+00  0.00000000E+00  0.00000000E+00  0.00000000E+00  0.00000000E+00
  0.00000000E+00  0.00000000E+00  0.00000000E+00  0.00000000E+00  0.00000000E+00
  0.00000000E+00  0.00000000E+00  0.00000000E+00  0.00000000E+00  0.00000000E+00
  0.00000000E+00
Integer atomic weights                     I   N=          26
          12          16          14          12          12          16
          14          12          12          16          12          16
          14          12          12          16          14          12
          12          16          12           1           1           1
           1           1
Real atomic weights                        R   N=          26
  1.20000000E+01  1.59949146E+01  1.40030740E+01  1.20000000E+01  1.20000000E+01
  1.59949146E+01  1.40030740E+01  1.20000000E+01  1.20000000E+01  1.59949146E+01
  1.20000000E+01  1.59949146E+01  1.40030740E+01  1.20000000E+01  1.20000000E+01
  1.59949146E+01  1.40030740E+01  1.20000000E+01  1.20000000E+01  1.59949146E+01
  1.20000000E+01  1.00782504E+00  1.00782504E+00  1.00782504E+00  1.00782504E+00
  1.00782504E+00
Atom fragment info                         I   N=          26
           0           0           0           0           0           0
           0           0           0           0           0           0
           0           0           0           0           0           0
           0           0           0           0           0           0
           0           0
Atom residue num                           I   N=          26
           0           0           0           0           0           0
           0           0           0           0           0           0
           0           0           0           0           0           0
           0           0           0           0           0           0
           0           0
Nuclear spins                              I   N=          26
           0           0           2           0           0           0
           2           0           0           0           0           0
           2           0           0           0           2           0
           0           0           0           1           1           1
           1           1
Nuclear ZEff                               R   N=          26
 -3.90000000E+00 -6.00000000E+00 -4.90000000E+00 -3.90000000E+00 -3.90000000E+00
 -6.00000000E+00 -4.90000000E+00 -3.90000000E+00 -3.90000000E+00 -6.00000000E+00
 -3.90000000E+00 -6.00000000E+00 -4.90000000E+00 -3.90000000E+00 -3.90000000E+00
 -6.00000000E+00 -4.90000000E+00 -3.90000000E+00 -3.90000000E+00 -6.00000000E+00
 -3.90000000E+00 -1.00000000E+00 -1.00000000E+00 -1.00000000E+00 -1.00000000E+00
 -1.00000000E+00
Nuclear ZNuc                               R   N=          26
  6.00000000E+00  8.00000000E+00  7.00000000E+00  6.00000000E+00  6.00000000E+00
  8.00000000E+00  7.00000000E+00  6.00000000E+00  6.00000000E+00  8.00000000E+00
  6.00000000E+00  8.00000000E+00  7.00000000E+00  6.00000000E+00  6.00000000E+00
  8.00000000E+00  7.00000000E+00  6.00000000E+00  6.00000000E+00  8.00000000E+00
  6.00000000E+00  1.00000000E+00  1.00000000E+00  1.00000000E+00  1.00000000E+00
  1.00000000E+00
Nuclear QMom                               R   N=          26
  0.00000000E+00  0.00000000E+00  2.04400000E+00  0.00000000E+00  0.00000000E+00
  0.00000000E+00  2.04400000E+00  0.00000000E+00  0.00000000E+00  0.00000000E+00
  0.00000000E+00  0.00000000E+00  2.04400000E+00  0.00000000E+00  0.00000000E+00
  0.00000000E+00  2.04400000E+00  0.00000000E+00  0.00000000E+00  0.00000000E+00
  0.00000000E+00  0.00000000E+00  0.00000000E+00  0.00000000E+00  0.00000000E+00
  0.00000000E+00
Nuclear GFac                               R   N=          26
  0.00000000E+00  0.00000000E+00  4.03761000E-01  0.00000000E+00  0.00000000E+00
  0.00000000E+00  4.03761000E-01  0.00000000E+00  0.00000000E+00  0.00000000E+00
  0.00000000E+00  0.00000000E+00  4.03761000E-01  0.00000000E+00  0.00000000E+00
  0.00000000E+00  4.03761000E-01  0.00000000E+00  0.00000000E+00  0.00000000E+00
  0.00000000E+00  2.79284600E+00  2.79284600E+00  2.79284600E+00  2.79284600E+00
  2.79284600E+00
MicOpt                                     I   N=          26
          -1          -1          -1          -1          -1          -1
          -1          -1          -1          -1          -1          -1
          -1          -1          -1          -1          -1          -1
          -1          -1          -1          -1          -1          -1
          -1          -1
Number of residues                         I                0
Number of secondary structures             I                0
Number of contracted shells                I               26
Number of primitive shells                 I              156
Pure/Cartesian d shells                    I                0
Pure/Cartesian f shells                    I                0
Highest angular momentum                   I                1
Largest degree of contraction              I                6
Shell types                                I   N=          26
          -1          -1          -1          -1          -1          -1
          -1          -1          -1          -1          -1          -1
          -1          -1          -1          -1          -1          -1
          -1          -1          -1           0           0           0
           0           0
Number of primitives per shell             I   N=          26
           6           6           6           6           6           6
           6           6           6           6           6           6
           6           6           6           6           6           6
           6           6           6           6           6           6
           6           6
Shell to atom map                          I   N=          26
           1           2           3           4           5           6
           7           8           9          10          11          12
          13          14          15          16          17          18
          19          20          21          22          23          24
          25          26
Primitive exponents                        R   N=         156
  1.14476344E+01  3.29633588E+00  1.29653143E+00  5.92558930E-01  2.94896438E-01
  1.51447622E-01  8.02643074E+01  2.31120341E+01  9.09054165E+00  4.15468650E+00
  2.06764625E+00  1.06186467E+00  1.54719623E+01  4.45513742E+00  1.75231709E+00
  8.00868468E-01  3.98565014E-01  2.04687870E-01  1.14476344E+01  3.29633588E+00
  1.29653143E+00  5.92558930E-01  2.94896438E-01  1.51447622E-01  1.14476344E+01
  3.29633588E+00  1.29653143E+00  5.92558930E-01  2.94896438E-01  1.51447622E-01
  8.02643074E+01  2.31120341E+01  9.09054165E+00  4.15468650E+00  2.06764625E+00
  1.06186467E+00  1.54719623E+01  4.45513742E+00  1.75231709E+00  8.00868468E-01
  3.98565014E-01  2.04687870E-01  1.14476344E+01  3.29633588E+00  1.29653143E+00
  5.92558930E-01  2.94896438E-01  1.51447622E-01  1.14476344E+01  3.29633588E+00
  1.29653143E+00  5.92558930E-01  2.94896438E-01  1.51447622E-01  8.02643074E+01
  2.31120341E+01  9.09054165E+00  4.15468650E+00  2.06764625E+00  1.06186467E+00
  1.14476344E+01  3.29633588E+00  1.29653143E+00  5.92558930E-01  2.94896438E-01
  1.51447622E-01  8.02643074E+01  2.31120341E+01  9.09054165E+00  4.15468650E+00
  2.06764625E+00  1.06186467E+00  1.54719623E+01  4.45513742E+00  1.75231709E+00
  8.00868468E-01  3.98565014E-01  2.04687870E-01  1.14476344E+01  3.29633588E+00
  1.29653143E+00  5.92558930E-01  2.94896438E-01  1.51447622E-01  1.14476344E+01
  3.29633588E+00  1.29653143E+00  5.92558930E-01  2.94896438E-01  1.51447622E-01
  8.02643074E+01  2.31120341E+01  9.09054165E+00  4.15468650E+00  2.06764625E+00
  1.06186467E+00  1.54719623E+01  4.45513742E+00  1.75231709E+00  8.00868468E-01
  3.98565014E-01  2.04687870E-01  1.14476344E+01  3.29633588E+00  1.29653143E+00
  5.92558930E-01  2.94896438E-01  1.51447622E-01  1.14476344E+01  3.29633588E+00
  1.29653143E+00  5.92558930E-01  2.94896438E-01  1.51447622E-01  8.02643074E+01
  2.31120341E+01  9.09054165E+00  4.15468650E+00  2.06764625E+00  1.06186467E+00
  1.14476344E+01  3.29633588E+00  1.29653143E+00  5.92558930E-01  2.94896438E-01
  1.51447622E-01  4.39461478E+00  1.26542531E+00  4.97723458E-01  2.27476537E-01
  1.13207340E-01  5.81389949E-02  4.39461478E+00  1.26542531E+00  4.97723458E-01
  2.27476537E-01  1.13207340E-01  5.81389949E-02  4.39461478E+00  1.26542531E+00
  4.97723458E-01  2.27476537E-01  1.13207340E-01  5.81389949E-02  4.39461478E+00
  1.26542531E+00  4.97723458E-01  2.27476537E-01  1.13207340E-01  5.81389949E-02
  4.39461478E+00  1.26542531E+00  4.97723458E-01  2.27476537E-01  1.13207340E-01
  5.81389949E-02
Contraction coefficients                   R   N=         156
 -9.73739553E-03 -7.26587678E-02 -1.71615520E-01  1.28977624E-01  7.28861451E-01
  3.01331742E-01 -9.73739553E-03 -7.26587678E-02 -1.71615520E-01  1.28977624E-01
  7.28861451E-01  3.01331742E-01 -9.73739553E-03 -7.26587678E-02 -1.71615520E-01
  1.28977624E-01  7.28861451E-01  3.01331742E-01 -9.73739553E-03 -7.26587678E-02
 -1.71615520E-01  1.28977624E-01  7.28861451E-01  3.01331742E-01 -9.73739553E-03
 -7.26587678E-02 -1.71615520E-01  1.28977624E-01  7.28861451E-01  3.01331742E-01
 -9.73739553E-03 -7.26587678E-02 -1.71615520E-01  1.28977624E-01  7.28861451E-01
  3.01331742E-01 -9.73739553E-03 -7.26587678E-02 -1.71615520E-01  1.28977624E-01
  7.28861451E-01  3.01331742E-01 -9.73739553E-03 -7.26587678E-02 -1.71615520E-01
  1.28977624E-01  7.28861451E-01  3.01331742E-01 -9.73739553E-03 -7.26587678E-02
 -1.71615520E-01  1.28977624E-01  7.28861451E-01  3.01331742E-01 -9.73739553E-03
 -7.26587678E-02 -1.71615520E-01  1.28977624E-01  7.28861451E-01  3.01331742E-01
 -9.73739553E-03 -7.26587678E-02 -1.71615520E-01  1.28977624E-01  7.28861451E-01
  3.01331742E-01 -9.73739553E-03 -7.26587678E-02 -1.71615520E-01  1.28977624E-01
  7.28861451E-01  3.01331742E-01 -9.73739553E-03 -7.26587678E-02 -1.71615520E-01
  1.28977624E-01  7.28861451E-01  3.01331742E-01 -9.73739553E-03 -7.26587678E-02
 -1.71615520E-01  1.28977624E-01  7.28861451E-01  3.01331742E-01 -9.73739553E-03
 -7.26587678E-02 -1.71615520E-01  1.28977624E-01  7.28861451E-01  3.01331742E-01
 -9.73739553E-03 -7.26587678E-02 -1.71615520E-01  1.28977624E-01  7.28861451E-01
  3.01331742E-01 -9.73739553E-03 -7.26587678E-02 -1.71615520E-01  1.28977624E-01
  7.28861451E-01  3.01331742E-01 -9.73739553E-03 -7.26587678E-02 -1.71615520E-01
  1.28977624E-01  7.28861451E-01  3.01331742E-01 -9.73739553E-03 -7.26587678E-02
 -1.71615520E-01  1.28977624E-01  7.28861451E-01  3.01331742E-01 -9.73739553E-03
 -7.26587678E-02 -1.71615520E-01  1.28977624E-01  7.28861451E-01  3.01331742E-01
 -9.73739553E-03 -7.26587678E-02 -1.71615520E-01  1.28977624E-01  7.28861451E-01
  3.01331742E-01 -9.73739553E-03 -7.26587678E-02 -1.71615520E-01  1.28977624E-01
  7.28861451E-01  3.01331742E-01 -9.73739553E-03 -7.26587678E-02 -1.71615520E-01
  1.28977624E-01  7.28861451E-01  3.01331742E-01 -9.73739553E-03 -7.26587678E-02
 -1.71615520E-01  1.28977624E-01  7.28861451E-01  3.01331742E-01 -9.73739553E-03
 -7.26587678E-02 -1.71615520E-01  1.28977624E-01  7.28861451E-01  3.01331742E-01
 -9.73739553E-03 -7.26587678E-02 -1.71615520E-01  1.28977624E-01  7.28861451E-01
  3.01331742E-01
P(S=P) Contraction coefficients            R   N=         156
 -8.10494336E-03 -1.71547892E-02  7.36978576E-02  3.96514999E-01  4.97808488E-01
  1.17482582E-01 -8.10494336E-03 -1.71547892E-02  7.36978576E-02  3.96514999E-01
  4.97808488E-01  1.17482582E-01 -8.10494336E-03 -1.71547892E-02  7.36978576E-02
  3.96514999E-01  4.97808488E-01  1.17482582E-01 -8.10494336E-03 -1.71547892E-02
  7.36978576E-02  3.96514999E-01  4.97808488E-01  1.17482582E-01 -8.10494336E-03
 -1.71547892E-02  7.36978576E-02  3.96514999E-01  4.97808488E-01  1.17482582E-01
 -8.10494336E-03 -1.71547892E-02  7.36978576E-02  3.96514999E-01  4.97808488E-01
  1.17482582E-01 -8.10494336E-03 -1.71547892E-02  7.36978576E-02  3.96514999E-01
  4.97808488E-01  1.17482582E-01 -8.10494336E-03 -1.71547892E-02  7.36978576E-02
  3.96514999E-01  4.97808488E-01  1.17482582E-01 -8.10494336E-03 -1.71547892E-02
  7.36978576E-02  3.96514999E-01  4.97808488E-01  1.17482582E-01 -8.10494336E-03
 -1.71547892E-02  7.36978576E-02  3.96514999E-01  4.97808488E-01  1.17482582E-01
 -8.10494336E-03 -1.71547892E-02  7.36978576E-02  3.96514999E-01  4.97808488E-01
  1.17482582E-01 -8.10494336E-03 -1.71547892E-02  7.36978576E-02  3.96514999E-01
  4.97808488E-01  1.17482582E-01 -8.10494336E-03 -1.71547892E-02  7.36978576E-02
  3.96514999E-01  4.97808488E-01  1.17482582E-01 -8.10494336E-03 -1.71547892E-02
  7.36978576E-02  3.96514999E-01  4.97808488E-01  1.17482582E-01 -8.10494336E-03
 -1.71547892E-02  7.36978576E-02  3.96514999E-01  4.97808488E-01  1.17482582E-01
 -8.10494336E-03 -1.71547892E-02  7.36978576E-02  3.96514999E-01  4.97808488E-01
  1.17482582E-01 -8.10494336E-03 -1.71547892E-02  7.36978576E-02  3.96514999E-01
  4.97808488E-01  1.17482582E-01 -8.10494336E-03 -1.71547892E-02  7.36978576E-02
  3.96514999E-01  4.97808488E-01  1.17482582E-01 -8.10494336E-03 -1.71547892E-02
  7.36978576E-02  3.96514999E-01  4.97808488E-01  1.17482582E-01 -8.10494336E-03
 -1.71547892E-02  7.36978576E-02  3.96514999E-01  4.97808488E-01  1.17482582E-01
 -8.10494336E-03 -1.71547892E-02  7.36978576E-02  3.96514999E-01  4.97808488E-01
  1.17482582E-01  0.00000000E+00  0.00000000E+00  0.00000000E+00  0.00000000E+00
  0.00000000E+00  0.00000000E+00  0.00000000E+00  0.00000000E+00  0.00000000E+00
  0.00000000E+00  0.00000000E+00  0.00000000E+00  0.00000000E+00  0.00000000E+00
  0.00000000E+00  0.00000000E+00  0.00000000E+00  0.00000000E+00  0.00000000E+00
  0.00000000E+00  0.00000000E+00  0.00000000E+00  0.00000000E+00  0.00000000E+00
  0.00000000E+00  0.00000000E+00  0.00000000E+00  0.00000000E+00  0.00000000E+00
  0.00000000E+00
Coordinates of each shell                  R   N=          78
  5.68051218E+00  8.88105705E-02  2.71383843E+01  5.58979663E+00 -2.20909802E+00
  2.74293788E+01  6.57813976E+00  1.67618974E+00  2.88409774E+01  7.86693520E+00
  7.40760849E-01  3.10708616E+01  6.47042229E+00  1.82356233E+00  3.33177433E+01
  5.92618759E+00  3.98732110E+00  3.32818450E+01  5.99611037E+00  2.43768982E-01
  3.52377220E+01  4.83581805E+00  9.75114686E-01  3.76112468E+01  1.07487535E+01
  1.41732160E+00  3.09707433E+01  1.18372435E+01  2.45675281E-01  2.87918563E+01
  6.33055986E+00 -2.30556300E-01  3.97107163E+01  6.36082101E+00 -2.53036312E+00
  3.99488078E+01  7.68551460E+00  1.30011814E+00  4.11355373E+01  9.23698937E+00
  3.87386977E-01  4.31821289E+01  8.22031928E+00  1.45321912E+00  4.56822221E+01
  7.86317236E+00  3.74357546E+00  4.58617493E+01  7.68175280E+00 -2.26734953E-01
  4.75284848E+01  7.02979407E+00  5.91495011E-01  5.01061053E+01  2.15047670E+00
 -3.96883682E-02  3.77624215E+01  7.42660628E-01  7.44574165E-01  3.55722016E+01
  9.18403760E-01  9.46757758E-01  3.99998346E+01  5.10687946E+00  9.47183098E-01
  2.53998061E+01  1.17421866E+01  6.84445650E-01  3.25721476E+01  1.11691030E+01
  9.23493794E-01  4.29212868E+01  8.64380069E+00  3.62788620E-01  5.13024280E+01
  5.41247454E+00 -3.82081930E-01  5.08306310E+01
Num ILSW                                   I              100
ILSW                                       I   N=         100
           0           0           0           0           2           0
           0           0           0           0           0          -1
           5           0           0           0           0           0
           0           0           0           0           0           0
           1           1           0           0           0           0
           0           0      100000           0          -1           0
           0           0           0           0           0           0
           0           0           0          40           0           0
           0 -2000000000           1           0           0           0
           0           0           4          52           0           0
           0           1           0           0           0           0
           0           0           0          26           0           1
           0           0           0           0           0           0
           0           0           0           0           0           0
           0           0           0           0           0           0
           0           0           0           0           0           0
           0           0           0           0
Num RLSW                                   I               52
RLSW                                       R   N=          52
  1.00000000E+00  1.00000000E+00  1.00000000E+00  1.00000000E+00  1.00000000E+00
  0.00000000E+00  0.00000000E+00  1.00000000E+00  0.00000000E+00  0.00000000E+00
  0.00000000E+00  0.00000000E+00  1.00000000E+00  0.00000000E+00  0.00000000E+00
  0.00000000E+00  0.00000000E+00  1.00000000E+00  0.00000000E+00  0.00000000E+00
  0.00000000E+00  0.00000000E+00  1.00000000E+00  0.00000000E+00  0.00000000E+00
  0.00000000E+00  0.00000000E+00  1.00000000E+00  0.00000000E+00  0.00000000E+00
  0.00000000E+00  0.00000000E+00  1.00000000E+00  0.00000000E+00  0.00000000E+00
  0.00000000E+00  0.00000000E+00  0.00000000E+00  1.00000000E+00  1.00000000E+00
  0.00000000E+00  1.00000000E+00  0.00000000E+00  0.00000000E+00  0.00000000E+00
  0.00000000E+00  0.00000000E+00  0.00000000E+00  0.00000000E+00  0.00000000E+00
  0.00000000E+00  0.00000000E+00
MxBond                                     I                3
NBond                                      I   N=          26
           3           1           2           3           3           1
           2           3           3           1           3           1
           2           3           3           1           2           3
           3           1           1           1           1           1
           1           1
IBond                                      I   N=          78
           2           3          22           1           0           0
           1           4           0           3           5           9
           4           6           7           5           0           0
           5           8           0           7          11          19
           4          10          23           9           0           0
           8          12          13          11           0           0
          11          14           0          13          15          24
          14          16          17          15           0           0
          15          18           0          17          25          26
           8          20          21          19           0           0
          19           0           0           1           0           0
           9           0           0          14           0           0
          18           0           0          18           0           0
RBond                                      R   N=          78
  2.00000000E+00  1.50000000E+00  1.00000000E+00  2.00000000E+00  0.00000000E+00
  0.00000000E+00  1.50000000E+00  1.00000000E+00  0.00000000E+00  1.00000000E+00
  1.00000000E+00  1.00000000E+00  1.00000000E+00  2.00000000E+00  1.50000000E+00
  2.00000000E+00  0.00000000E+00  0.00000000E+00  1.50000000E+00  1.00000000E+00
  0.00000000E+00  1.00000000E+00  1.00000000E+00  1.00000000E+00  1.00000000E+00
  1.00000000E+00  1.00000000E+00  1.00000000E+00  0.00000000E+00  0.00000000E+00
  1.00000000E+00  2.00000000E+00  1.50000000E+00  2.00000000E+00  0.00000000E+00
  0.00000000E+00  1.50000000E+00  1.00000000E+00  0.00000000E+00  1.00000000E+00
  1.00000000E+00  1.00000000E+00  1.00000000E+00  2.00000000E+00  1.50000000E+00
  2.00000000E+00  0.00000000E+00  0.00000000E+00  1.50000000E+00  1.00000000E+00
  0.00000000E+00  1.00000000E+00  1.00000000E+00  1.00000000E+00  1.00000000E+00
  1.00000000E+00  1.00000000E+00  1.00000000E+00  0.00000000E+00  0.00000000E+00
  1.00000000E+00  0.00000000E+00  0.00000000E+00  1.00000000E+00  0.00000000E+00
  0.00000000E+00  1.00000000E+00  0.00000000E+00  0.00000000E+00  1.00000000E+00
  0.00000000E+00  0.00000000E+00  1.00000000E+00  0.00000000E+00  0.00000000E+00
  1.00000000E+00  0.00000000E+00  0.00000000E+00
Virial Ratio                               R      9.949803651457145E-01
SCF Energy                                 R     -1.140707400182464E+00
Total Energy                               R     -1.140707400182464E+00
RMS Density                                R      6.553041254539294E-09
Job Status                                 I                1
Nuclear derivative order                   I                0
External E-field                           R   N=          35
  0.00000000E+00  0.00000000E+00  0.00000000E+00  0.00000000E+00  0.00000000E+00
  0.00000000E+00  0.00000000E+00  0.00000000E+00  0.00000000E+00  0.00000000E+00
  0.00000000E+00  0.00000000E+00  0.00000000E+00  0.00000000E+00  0.00000000E+00
  0.00000000E+00  0.00000000E+00  0.00000000E+00  0.00000000E+00  0.00000000E+00
  0.00000000E+00  0.00000000E+00  0.00000000E+00  0.00000000E+00  0.00000000E+00
  0.00000000E+00  0.00000000E+00  0.00000000E+00  0.00000000E+00  0.00000000E+00
  0.00000000E+00  0.00000000E+00  0.00000000E+00  0.00000000E+00  0.00000000E+00
IOpCl                                      I                0
IROHF                                      I                0
Alpha Orbital Energies                     R   N=          89
 -1.72941280E+00 -1.68950426E+00 -1.68387183E+00 -1.67047368E+00 -1.60861810E+00
 -1.60191338E+00 -1.58128506E+00 -1.56948072E+00 -1.56780229E+00 -1.55771717E+00
 -1.50764814E+00 -1.49416312E+00 -1.43957346E+00 -1.42686064E+00 -1.38824180E+00
 -1.34162804E+00 -1.30381812E+00 -1.24550151E+00 -1.21385077E+00 -1.19374558E+00
 -1.15465769E+00 -1.13299601E+00 -1.13025781E+00 -1.11132913E+00 -1.08901339E+00
 -1.08379369E+00 -1.07190982E+00 -1.06391451E+00 -1.03850320E+00 -1.03112615E+00
 -1.02091977E+00 -1.01497887E+00 -1.00830655E+00 -9.97214452E-01 -9.88703682E-01
 -9.79851211E-01 -9.75838335E-01 -9.41377398E-01 -9.36413344E-01 -9.26879589E-01
 -9.13996365E-01 -9.08340785E-01 -8.99297712E-01 -8.74933205E-01 -8.73442426E-01
 -8.63558332E-01 -8.52776259E-01 -8.35491403E-01 -8.32632388E-01 -8.29993089E-01
 -7.84066719E-01 -7.63578074E-01 -6.42709488E-01 -6.14937603E-01 -6.03524529E-01
 -5.68514599E-01 -5.64124993E-01 -5.49071546E-01 -5.32501365E-01 -5.14349259E-01
 -4.96076571E-01 -4.90034952E-01 -4.84262514E-01 -4.56469098E-01 -4.53558645E-01
 -4.30843269E-01 -4.20509444E-01 -4.16662960E-01 -4.15161093E-01 -4.08555082E-01
 -3.98483405E-01 -3.91818476E-01 -3.86722649E-01 -3.82833432E-01 -3.65422817E-01
 -3.62025218E-01 -3.52331871E-01 -3.49306975E-01 -3.39029152E-01 -3.30264864E-01
 -3.23310834E-01 -3.16535486E-01 -3.02975540E-01 -2.85491725E-01 -2.77688933E-01
 -2.47534967E-01 -2.10180381E-01 -1.94123913E-01 -3.85578939E-02
Alpha MO coefficients                      R   N=        7921
 -1.45708918E-05 -3.99181733E-06 -4.00982102E-06 -2.16968494E-05 -3.87616652E-06
 -1.01315375E-06 -5.78524230E-06 -4.07405613E-06 -1.00170826E-04 -6.38621922E-06
  1.00867095E-05 -7.98981182E-05 -2.78781033E-04  1.22785638E-04 -1.08920320E-04
 -1.78156504E-04 -1.29924955E-03  2.37171912E-04 -2.26653937E-04 -3.30232392E-04
 -1.03133201E-03 -1.20837494E-04  6.69522824E-04 -1.07859584E-04 -1.46862667E-03
  2.35786855E-04 -5.02290520E-04  1.84954072E-04  4.66218433E-04  9.16498596E-04
 -4.46222284E-04  2.22292107E-03 -6.31896471E-05  5.36274611E-05 -2.71477308E-07
 -3.53576571E-05  1.33158387E-05  1.72953207E-06  6.20122868E-07 -2.39382984E-06
  1.46588929E-02  5.35568063E-03  1.05722505E-03  1.00642242E-02  7.08263658E-03
  9.57044487E-04  6.41948938E-03  1.56796565E-03  4.31831979E-02  3.58757411E-03
 -7.99312756E-03  2.21031430E-02  8.71733901E-02 -3.13068454E-02  3.20487289E-02
  5.74290397E-02  4.32751942E-01 -5.72441023E-02  7.69237894E-02  1.36857031E-01
  3.72029046E-01  2.42938896E-02 -2.23158265E-01  1.45934721E-02  5.39705508E-01
 -3.08757478E-03  1.81398598E-01  3.98764602E-02  3.73314072E-01  1.35294897E-02
 -5.43456862E-02 -1.13478192E-01 -2.45765864E-04  2.30820432E-04 -1.13290781E-04
  5.27264109E-04 -5.76862869E-04 -2.02008456E-04  6.36743442E-05 -2.09545669E-04
  1.13468342E-04  2.02231011E-04 -3.60099885E-05  9.91106139E-05 -3.74370788E-07
 -5.70527639E-05  2.13807050E-02  1.43352411E-01  2.78986419E-01  1.80754713E-02
  4.45311769E-03  2.80708909E-03  1.50863889E-02  7.30185300E-03  1.35559800E-03
  7.41777194E-03  2.57018507E-03  6.95865116E-02  5.66953288E-03 -9.25908067E-03
  3.91990378E-02  1.29186562E-01 -4.82463777E-02  5.75016791E-02  5.72048196E-02
  4.86187002E-01 -7.20100092E-02  1.94899526E-01  5.90155418E-02  5.35293401E-01
  6.78664126E-02 -2.89606900E-01  2.04701292E-02  3.40697782E-01 -1.36616764E-02
  1.38886868E-01 -3.71352620E-02  1.82750635E-01  4.37537141E-02 -2.66422907E-02
 -5.11018041E-02  3.78631651E-02 -2.63795227E-02 -3.90124403E-04  1.38341386E-02
 -1.78925016E-03 -3.00036246E-03  1.11600529E-03  3.63442191E-03  2.11551282E-01
  1.48279290E-02 -2.72939481E-02  6.65522502E-03  1.48317640E-01  1.46615165E-03
  1.03324284E-01 -9.78787349E-03  1.68104703E-01 -2.34218448E-02 -6.40019518E-02
 -2.17146210E-02  5.67225036E-02 -2.75368583E-02  6.36656558E-03 -2.96563178E-02
  2.16935979E-02  3.69768627E-05  1.20878671E-02 -1.86070129E-02  2.80781409E-02