Atom number=14                                                          
SP        RPM6                                                        ZDO                 
Number of atoms                            I               14
Info1-9                                    I   N=           9
          81          80           0           0           0         111
           1           8        2302
Full Title                                 C   N=           2
Atom number=14          
Route                                      C   N=           9
#p int=acc2e=12 pm6 charge nosymm int=acc2e=12 scf=(noincfoc
k,novaracc,fermi,maxcycle=128,ndamp=64,xqc)     
Charge                                     I                2
Multiplicity                               I                1
Number of electrons                        I               48
Number of alpha electrons                  I               24
Number of beta electrons                   I               24
Number of basis functions                  I               44
Number of independent functions            I               44
Number of point charges in /Mol/           I                0
Number of translation vectors              I                0
Atomic numbers                             I   N=          14
           6           8           7           6           6           8
           7           6           6           6           1           1
           1           1
Nuclear charges                            R   N=          14
  4.00000000E+00  6.00000000E+00  5.00000000E+00  4.00000000E+00  4.00000000E+00
  6.00000000E+00  5.00000000E+00  4.00000000E+00  4.00000000E+00  4.00000000E+00
  1.00000000E+00  1.00000000E+00  1.00000000E+00  1.00000000E+00
Current cartesian coordinates              R   N=          42
 -3.09160432E+00  3.30694740E-01  8.69275385E+00 -3.29569780E+00  2.56246921E+00
  9.18783135E+00 -2.06925099E+00 -1.32281734E+00  1.02328755E+01 -1.08091452E+00
 -5.87715313E-01  1.26025806E+01  1.58740020E+00 -1.61384263E+00  1.28350247E+01
  1.94074633E+00 -3.82102870E+00  1.26989638E+01  3.42041783E+00  3.75940225E-03
  1.32715580E+01  6.03010801E+00 -8.10679355E-01  1.34189358E+01 -2.66640190E+00
 -1.72529932E+00  1.47342106E+01 -1.37384193E+00 -1.21886880E+00  1.72399945E+01
 -3.66470683E+00 -4.29411028E-01  6.90885228E+00 -4.53983552E+00 -9.64614215E-01
  1.47234041E+01  6.99792754E+00  1.12799453E-01  1.49351892E+01  6.91777634E+00
 -3.85127167E-01  1.16527358E+01
Number of symbols in /Mol/                 I                0
Int Atom Types                             I   N=          14
           0           0           0           0           0           0
           0           0           0           0           0           0
           0           0
Force Field                                I                0
Atom Types                                 C   N=          14
                                                            
                                                            
                                                
MM charges                                 R   N=          14
  0.00000000E+00  0.00000000E+00  0.00000000E+00  0.00000000E+00  0.00000000E+00
  0.00000000E+00  0.00000000E+00  0.00000000E+00  0.00000000E+00  0.00000000E+00
  0.00000000E+00  0.00000000E+00  0.00000000E+00  0.00000000E+00
Integer atomic weights                     I   N=          14
          12          16          14          12          12          16
          14          12          12          12           1           1
           1           1
Real atomic weights                        R   N=          14
  1.20000000E+01  1.59949146E+01  1.40030740E+01  1.20000000E+01  1.20000000E+01
  1.59949146E+01  1.40030740E+01  1.20000000E+01  1.20000000E+01  1.20000000E+01
  1.00782504E+00  1.00782504E+00  1.00782504E+00  1.00782504E+00
Atom fragment info                         I   N=          14
           0           0           0           0           0           0
           0           0           0           0           0           0
           0           0
Atom residue num                           I   N=          14
           0           0           0           0           0           0
           0           0           0           0           0           0
           0           0
Nuclear spins                              I   N=          14
           0           0           2           0           0           0
           2           0           0           0           1           1
           1           1
Nuclear ZEff                               R   N=          14
 -3.90000000E+00 -6.00000000E+00 -4.90000000E+00 -3.90000000E+00 -3.90000000E+00
 -6.00000000E+00 -4.90000000E+00 -3.90000000E+00 -3.90000000E+00 -3.90000000E+00
 -1.00000000E+00 -1.00000000E+00 -1.00000000E+00 -1.00000000E+00
Nuclear ZNuc                               R   N=          14
  6.00000000E+00  8.00000000E+00  7.00000000E+00  6.00000000E+00  6.00000000E+00
  8.00000000E+00  7.00000000E+00  6.00000000E+00  6.00000000E+00  6.00000000E+00
  1.00000000E+00  1.00000000E+00  1.00000000E+00  1.00000000E+00
Nuclear QMom                               R   N=          14
  0.00000000E+00  0.00000000E+00  2.04400000E+00  0.00000000E+00  0.00000000E+00
  0.00000000E+00  2.04400000E+00  0.00000000E+00  0.00000000E+00  0.00000000E+00
  0.00000000E+00  0.00000000E+00  0.00000000E+00  0.00000000E+00
Nuclear GFac                               R   N=          14
  0.00000000E+00  0.00000000E+00  4.03761000E-01  0.00000000E+00  0.00000000E+00
  0.00000000E+00  4.03761000E-01  0.00000000E+00  0.00000000E+00  0.00000000E+00
  2.79284600E+00  2.79284600E+00  2.79284600E+00  2.79284600E+00
MicOpt                                     I   N=          14
          -1          -1          -1          -1          -1          -1
          -1          -1          -1          -1          -1          -1
          -1          -1
Number of residues                         I                0
Number of secondary structures             I                0
Number of contracted shells                I               14
Number of primitive shells                 I               84
Pure/Cartesian d shells                    I                0
Pure/Cartesian f shells                    I                0
Highest angular momentum                   I                1
Largest degree of contraction              I                6
Shell types                                I   N=          14
          -1          -1          -1          -1          -1          -1
          -1          -1          -1          -1           0           0
           0           0
Number of primitives per shell             I   N=          14
           6           6           6           6           6           6
           6           6           6           6           6           6
           6           6
Shell to atom map                          I   N=          14
           1           2           3           4           5           6
           7           8           9          10          11          12
          13          14
Primitive exponents                        R   N=          84
  1.14476344E+01  3.29633588E+00  1.29653143E+00  5.92558930E-01  2.94896438E-01
  1.51447622E-01  8.02643074E+01  2.31120341E+01  9.09054165E+00  4.15468650E+00
  2.06764625E+00  1.06186467E+00  1.54719623E+01  4.45513742E+00  1.75231709E+00
  8.00868468E-01  3.98565014E-01  2.04687870E-01  1.14476344E+01  3.29633588E+00
  1.29653143E+00  5.92558930E-01  2.94896438E-01  1.51447622E-01  1.14476344E+01
  3.29633588E+00  1.29653143E+00  5.92558930E-01  2.94896438E-01  1.51447622E-01
  8.02643074E+01  2.31120341E+01  9.09054165E+00  4.15468650E+00  2.06764625E+00
  1.06186467E+00  1.54719623E+01  4.45513742E+00  1.75231709E+00  8.00868468E-01
  3.98565014E-01  2.04687870E-01  1.14476344E+01  3.29633588E+00  1.29653143E+00
  5.92558930E-01  2.94896438E-01  1.51447622E-01  1.14476344E+01  3.29633588E+00
  1.29653143E+00  5.92558930E-01  2.94896438E-01  1.51447622E-01  1.14476344E+01
  3.29633588E+00  1.29653143E+00  5.92558930E-01  2.94896438E-01  1.51447622E-01
  4.39461478E+00  1.26542531E+00  4.97723458E-01  2.27476537E-01  1.13207340E-01
  5.81389949E-02  4.39461478E+00  1.26542531E+00  4.97723458E-01  2.27476537E-01
  1.13207340E-01  5.81389949E-02  4.39461478E+00  1.26542531E+00  4.97723458E-01
  2.27476537E-01  1.13207340E-01  5.81389949E-02  4.39461478E+00  1.26542531E+00
  4.97723458E-01  2.27476537E-01  1.13207340E-01  5.81389949E-02
Contraction coefficients                   R   N=          84
 -9.73739553E-03 -7.26587678E-02 -1.71615520E-01  1.28977624E-01  7.28861451E-01
  3.01331742E-01 -9.73739553E-03 -7.26587678E-02 -1.71615520E-01  1.28977624E-01
  7.28861451E-01  3.01331742E-01 -9.73739553E-03 -7.26587678E-02 -1.71615520E-01
  1.28977624E-01  7.28861451E-01  3.01331742E-01 -9.73739553E-03 -7.26587678E-02
 -1.71615520E-01  1.28977624E-01  7.28861451E-01  3.01331742E-01 -9.73739553E-03
 -7.26587678E-02 -1.71615520E-01  1.28977624E-01  7.28861451E-01  3.01331742E-01
 -9.73739553E-03 -7.26587678E-02 -1.71615520E-01  1.28977624E-01  7.28861451E-01
  3.01331742E-01 -9.73739553E-03 -7.26587678E-02 -1.71615520E-01  1.28977624E-01
  7.28861451E-01  3.01331742E-01 -9.73739553E-03 -7.26587678E-02 -1.71615520E-01
  1.28977624E-01  7.28861451E-01  3.01331742E-01 -9.73739553E-03 -7.26587678E-02
 -1.71615520E-01  1.28977624E-01  7.28861451E-01  3.01331742E-01 -9.73739553E-03
 -7.26587678E-02 -1.71615520E-01  1.28977624E-01  7.28861451E-01  3.01331742E-01
 -9.73739553E-03 -7.26587678E-02 -1.71615520E-01  1.28977624E-01  7.28861451E-01
  3.01331742E-01 -9.73739553E-03 -7.26587678E-02 -1.71615520E-01  1.28977624E-01
  7.28861451E-01  3.01331742E-01 -9.73739553E-03 -7.26587678E-02 -1.71615520E-01
  1.28977624E-01  7.28861451E-01  3.01331742E-01 -9.73739553E-03 -7.26587678E-02
 -1.71615520E-01  1.28977624E-01  7.28861451E-01  3.01331742E-01
P(S=P) Contraction coefficients            R   N=          84
 -8.10494336E-03 -1.71547892E-02  7.36978576E-02  3.96514999E-01  4.97808488E-01
  1.17482582E-01 -8.10494336E-03 -1.71547892E-02  7.36978576E-02  3.96514999E-01
  4.97808488E-01  1.17482582E-01 -8.10494336E-03 -1.71547892E-02  7.36978576E-02
  3.96514999E-01  4.97808488E-01  1.17482582E-01 -8.10494336E-03 -1.71547892E-02
  7.36978576E-02  3.96514999E-01  4.97808488E-01  1.17482582E-01 -8.10494336E-03
 -1.71547892E-02  7.36978576E-02  3.96514999E-01  4.97808488E-01  1.17482582E-01
 -8.10494336E-03 -1.71547892E-02  7.36978576E-02  3.96514999E-01  4.97808488E-01
  1.17482582E-01 -8.10494336E-03 -1.71547892E-02  7.36978576E-02  3.96514999E-01
  4.97808488E-01  1.17482582E-01 -8.10494336E-03 -1.71547892E-02  7.36978576E-02
  3.96514999E-01  4.97808488E-01  1.17482582E-01 -8.10494336E-03 -1.71547892E-02
  7.36978576E-02  3.96514999E-01  4.97808488E-01  1.17482582E-01 -8.10494336E-03
 -1.71547892E-02  7.36978576E-02  3.96514999E-01  4.97808488E-01  1.17482582E-01
  0.00000000E+00  0.00000000E+00  0.00000000E+00  0.00000000E+00  0.00000000E+00
  0.00000000E+00  0.00000000E+00  0.00000000E+00  0.00000000E+00  0.00000000E+00
  0.00000000E+00  0.00000000E+00  0.00000000E+00  0.00000000E+00  0.00000000E+00
  0.00000000E+00  0.00000000E+00  0.00000000E+00  0.00000000E+00  0.00000000E+00
  0.00000000E+00  0.00000000E+00  0.00000000E+00  0.00000000E+00
Coordinates of each shell                  R   N=          42
 -3.09160432E+00  3.30694740E-01  8.69275385E+00 -3.29569780E+00  2.56246921E+00
  9.18783135E+00 -2.06925099E+00 -1.32281734E+00  1.02328755E+01 -1.08091452E+00
 -5.87715313E-01  1.26025806E+01  1.58740020E+00 -1.61384263E+00  1.28350247E+01
  1.94074633E+00 -3.82102870E+00  1.26989638E+01  3.42041783E+00  3.75940225E-03
  1.32715580E+01  6.03010801E+00 -8.10679355E-01  1.34189358E+01 -2.66640190E+00
 -1.72529932E+00  1.47342106E+01 -1.37384193E+00 -1.21886880E+00  1.72399945E+01
 -3.66470683E+00 -4.29411028E-01  6.90885228E+00 -4.53983552E+00 -9.64614215E-01
  1.47234041E+01  6.99792754E+00  1.12799453E-01  1.49351892E+01  6.91777634E+00
 -3.85127167E-01  1.16527358E+01
Num ILSW                                   I              100
ILSW                                       I   N=         100
           0           0           0           0           2           0
           0           0           0           0           0          -1
           5           0           0           0           0           0
           0           0           0           0           0           0
           1           1           0           0           0           0
           0           0      100000           0          -1           0
           0           0           0           0           0           0
           0           0           0          40           0           0
           0 -2000000000           1           0           0           0
           0           0           4          52           0           0
           0           1           0           0           0           0
           0           0           0          14           0           1
           0           0           0           0           0           0
           0           0           0           0           0           0
           0           0           0           0           0           0
           0           0           0           0           0           0
           0           0           0           0
Num RLSW                                   I               52
RLSW                                       R   N=          52
  1.00000000E+00  1.00000000E+00  1.00000000E+00  1.00000000E+00  1.00000000E+00
  0.00000000E+00  0.00000000E+00  1.00000000E+00  0.00000000E+00  0.00000000E+00
  0.00000000E+00  0.00000000E+00  1.00000000E+00  0.00000000E+00  0.00000000E+00
  0.00000000E+00  0.00000000E+00  1.00000000E+00  0.00000000E+00  0.00000000E+00
  0.00000000E+00  0.00000000E+00  1.00000000E+00  0.00000000E+00  0.00000000E+00
  0.00000000E+00  0.00000000E+00  1.00000000E+00  0.00000000E+00  0.00000000E+00
  0.00000000E+00  0.00000000E+00  1.00000000E+00  0.00000000E+00  0.00000000E+00
  0.00000000E+00  0.00000000E+00  0.00000000E+00  1.00000000E+00  1.00000000E+00
  0.00000000E+00  1.00000000E+00  0.00000000E+00  0.00000000E+00  0.00000000E+00
  0.00000000E+00  0.00000000E+00  0.00000000E+00  0.00000000E+00  0.00000000E+00
  0.00000000E+00  0.00000000E+00
MxBond                                     I                3
NBond                                      I   N=          14
           3           1           2           3           3           1
           2           3           3           1           1           1
           1           1
IBond                                      I   N=          42
           2           3          11           1           0           0
           1           4           0           3           5           9
           4           6           7           5           0           0
           5           8           0           7          13          14
           4          10          12           9           0           0
           1           0           0           9           0           0
           8           0           0           8           0           0
RBond                                      R   N=          42
  2.00000000E+00  1.50000000E+00  1.00000000E+00  2.00000000E+00  0.00000000E+00
  0.00000000E+00  1.50000000E+00  1.00000000E+00  0.00000000E+00  1.00000000E+00
  1.00000000E+00  1.00000000E+00  1.00000000E+00  2.00000000E+00  1.50000000E+00
  2.00000000E+00  0.00000000E+00  0.00000000E+00  1.50000000E+00  1.00000000E+00
  0.00000000E+00  1.00000000E+00  1.00000000E+00  1.00000000E+00  1.00000000E+00
  1.00000000E+00  1.00000000E+00  1.00000000E+00  0.00000000E+00  0.00000000E+00
  1.00000000E+00  0.00000000E+00  0.00000000E+00  1.00000000E+00  0.00000000E+00
  0.00000000E+00  1.00000000E+00  0.00000000E+00  0.00000000E+00  1.00000000E+00
  0.00000000E+00  0.00000000E+00
Virial Ratio                               R      9.939071664005920E-01
SCF Energy                                 R     -5.949246645538437E-01
Total Energy                               R     -5.949246645538437E-01
RMS Density                                R      3.940415183111784E-09
Job Status                                 I                1
Nuclear derivative order                   I                0
External E-field                           R   N=          35
  0.00000000E+00  0.00000000E+00  0.00000000E+00  0.00000000E+00  0.00000000E+00
  0.00000000E+00  0.00000000E+00  0.00000000E+00  0.00000000E+00  0.00000000E+00
  0.00000000E+00  0.00000000E+00  0.00000000E+00  0.00000000E+00  0.00000000E+00
  0.00000000E+00  0.00000000E+00  0.00000000E+00  0.00000000E+00  0.00000000E+00
  0.00000000E+00  0.00000000E+00  0.00000000E+00  0.00000000E+00  0.00000000E+00
  0.00000000E+00  0.00000000E+00  0.00000000E+00  0.00000000E+00  0.00000000E+00
  0.00000000E+00  0.00000000E+00  0.00000000E+00  0.00000000E+00  0.00000000E+00
IOpCl                                      I                0
IROHF                                      I                0
Alpha Orbital Energies                     R   N=          44
 -1.80634206E+00 -1.78884204E+00 -1.70413505E+00 -1.67500824E+00 -1.63613521E+00
 -1.53033552E+00 -1.45469073E+00 -1.38225013E+00 -1.31092530E+00 -1.24878847E+00
 -1.18876421E+00 -1.16363860E+00 -1.15711110E+00 -1.14166397E+00 -1.11823429E+00
 -1.09324949E+00 -1.06447109E+00 -1.05617803E+00 -1.02056890E+00 -9.82973351E-01
 -9.66674073E-01 -9.34649082E-01 -9.12364590E-01 -8.85275856E-01 -7.25741451E-01
 -6.43079478E-01 -6.25581143E-01 -5.72125609E-01 -5.61708812E-01 -5.58592687E-01
 -5.26398635E-01 -5.07533957E-01 -4.97885028E-01 -4.85193586E-01 -4.76930366E-01
 -4.62392099E-01 -4.39383105E-01 -4.09550444E-01 -3.94177652E-01 -3.83561985E-01
 -3.73227656E-01 -3.57706879E-01 -3.39248665E-01 -2.82780591E-01
Alpha MO coefficients                      R   N=        1936
  1.38489168E-01  2.60305002E-02  1.89632411E-02  5.81272828E-02  1.18109162E-01
  1.34136306E-02 -6.91579746E-02 -2.16815155E-03  2.11788977E-01  2.00824475E-02
  6.17407374E-02  4.14432768E-02  2.15266133E-01  5.08685997E-02 -6.83927617E-02
 -3.52797803E-02  5.00483234E-01  6.79101357E-02 -2.12549106E-01 -9.74919863E-03
  5.79703044E-01 -3.87357259E-02  2.96231373E-01  1.88972222E-02  2.67056605E-01
 -5.39414079E-02 -1.43994935E-01 -2.80355962E-02  9.04987929E-02 -6.96578999E-02
 -2.64729441E-03 -1.23150750E-02  8.61472125E-02  3.74505364E-02  1.51758719E-02
 -3.56529571E-02  2.94232950E-02  1.65598372E-06 -2.20910608E-03 -2.54379554E-02
  3.20440838E-02  4.87177143E-02  2.04675319E-02  3.47084686E-02  4.73250635E-01
  4.86680834E-02  1.26554858E-01  1.57455133E-01  4.93538091E-01  4.02701750E-02
 -2.56328212E-01 -2.23361027E-02  4.36401636E-01 -4.77346955E-02  1.91510535E-01
 -1.06570019E-02  1.66407649E-01 -9.08352336E-02  7.64058593E-03 -1.15300477E-01
 -1.42099169E-01 -8.38965857E-02  9.84703738E-02 -1.51497364E-02 -2.29647499E-01
 -1.18741560E-03 -1.03035385E-01 -1.19497824E-02 -1.08184486E-01  5.56116980E-03
  5.81599574E-02  6.79876566E-03 -4.56522903E-02  3.10278986E-02 -1.25010126E-04
  5.00292450E-03  6.11426547E-02 -7.30134525E-03  2.25177422E-02 -3.56144869E-02
  7.85392016E-03 -6.49570884E-03  1.45413481E-03 -7.99011887E-03  1.17125516E-01
  6.21343609E-02 -1.13695029E-02 -1.75035148E-02  7.96160457E-02 -8.40138192E-02
  3.18555181E-01 -5.35501342E-02  5.51544698E-01 -1.12826902E-03 -1.40572294E-01
 -6.05446832E-02 -4.40722781E-01 -2.45671977E-02 -6.49899536E-02 -1.06753498E-01
 -3.57338409E-01  8.14779337E-02  6.91261410E-02  6.47103374E-02 -1.36464657E-02
  1.37615796E-01 -7.22200596E-02  1.53377383E-02  1.34320016E-01  3.45788538E-02
  3.19662401E-02  7.43752435E-03  7.76719522E-02  3.32452286E-02 -3.58188776E-02
 -1.12689820E-03  5.79003860E-02 -2.77037983E-02  4.80556969E-03 -5.23118187E-03
 -2.64701136E-01 -1.26557318E-02 -6.58082606E-02  5.80687347E-02 -9.26997296E-02
  2.68685404E-02  6.93927842E-04  6.09476525E-02  1.72684656E-02 -2.26365020E-01
  1.72087365E-02  2.43997980E-02 -4.09666201E-03  1.75862378E-03  9.46699300E-04
  2.90077687E-04 -2.96884450E-03  7.80963748E-04  1.70585566E-03  5.41437263E-04
 -7.19812008E-03  6.00836873E-03  7.67312059E-03  1.52541365E-03  5.48429704E-02
  5.38751174E-02  2.63493188E-02  1.47722029E-02  1.65419161E-01  1.65629629E-01
  3.69610255E-01  5.42595114E-02 -4.43451307E-01  7.09387204E-02 -3.80668839E-02
  6.61259013E-03  6.50520827E-01 -2.65441192E-03 -1.64998078E-01 -3.72430427E-02
  3.02681126E-01 -1.51390436E-01  4.43911370E-02 -2.93325194E-02  1.25588418E-02
  7.24898776E-03  1.11443826E-02  2.85974596E-03  1.27551035E-02  1.70396078E-03
  2.48274867E-03 -7.66580634E-03 -2.00719603E-03  8.25932939E-03  9.20913439E-02
  1.31072487E-01 -1.48019449E-01 -8.01400804E-02  2.20820705E-01 -5.32632507E-02
  2.73594287E-01 -1.66727401E-02 -6.56276440E-03 -2.50951879E-02 -3.36995510E-01
  3.85840670E-02 -1.02741513E-01  1.19573437E-01  1.56501766E-01 -3.73253273E-02
 -4.42527510E-02  2.13442562E-01  3.25078067E-02 -7.69048143E-02  2.72636733E-02
  3.42135922E-02 -5.00333257E-02 -2.56501729E-02 -3.64463504E-03  1.18262477E-02
 -4.26104491E-02 -3.46465800E-02  1.38043128E-02  8.72028187E-03 -4.66378546E-02
  1.65211004E-02 -6.23641166E-03  5.86642387E-03  5.06589624E-01 -2.71702235E-02
  1.16088688E-01  4.86430360E-02  2.61805351E-01 -7.32554518E-02 -5.08959709E-03
 -1.35475010E-01 -6.30054324E-02  4.92699420E-01 -1.48423622E-02 -2.24988320E-02
 -2.08530431E-01 -2.05226483E-02  1.50574611E-01 -7.59339932E-03  1.54576445E-01
 -5.18898988E-03  4.99668317E-02  1.01252135E-03 -5.99093642E-02  1.71406235E-01
 -6.01588012E-02  2.24496040E-01  3.56565681E-01  1.70181048E-01 -7.45127348E-02
 -3.79556885E-02  2.87042979E-01 -1.94422394E-01  1.76318709E-01 -1.36899229E-02
 -2.07776924E-01 -8.44224511E-02  6.37845529E-02 -2.88378692E-03 -6.93206272E-02
 -2.72729701E-01  9.23063113E-04 -2.63744213E-02 -3.24213668E-01  4.60190090E-02
 -5.31661669E-02  2.53974617E-02 -1.51312021E-01  1.79255596E-01 -3.39094506E-02
 -1.23638795E-01 -1.02063231E-01  5.67568167E-02  2.94542832E-03  2.57592602E-02
 -1.05622309E-01 -3.42431259E-01 -1.26513796E-01 -1.73888387E-01 -2.77177482E-01
 -1.23357320E-02  1.41036391E-01  5.21428230E-02  1.58135465E-01 -4.34297703E-03
  8.78894228E-02  3.36716627E-02  6.47980941E-02  1.40893527E-01 -5.49905179E-02
  3.14621803E-01  2.35601081E-01 -1.17720133E-01 -7.68963791E-02 -1.23864000E-01
 -1.88814693E-01 -1.44485040E-01 -1.26469846E-01 -6.78627742E-02  7.25048160E-02
 -5.06016750E-02 -7.12080021E-02 -2.86431075E-02 -7.11601150E-02  3.32820433E-01
  7.59973770E-02  1.71142509E-02  4.63199970E-01  2.53108514E-02  8.56776646E-02
 -4.23041542E-02 -4.36138779E-02  4.46705172E-02 -5.99073793E-03 -1.54418531E-01
 -1.39456606E-01  2.60275639E-02  2.69948531E-03  3.18757000E-02 -1.64097882E-01
 -1.04399867E-01  2.05072298E-01  2.89780273E-01  1.56545118E-01 -4.24233389E-03
 -5.26022178E-02 -6.58921252E-02 -7.93148880E-02 -1.77283781E-03 -6.12613621E-02
 -4.24112448E-02 -6.20140909E-02 -3.26643089E-02  8.86450920E-03 -1.40551089E-01
  8.31031946E-02  1.07335499E-01 -2.93680369E-02  1.87766288E-01  1.45943100E-02
 -1.72300551E-01 -2.80844676E-02  4.69341152E-02 -2.90637228E-02 -7.86948936E-02
 -2.44814627E-03  2.92393231E-02 -9.30852281E-02  8.55275455E-02  4.54965604E-02
  3.20872137E-02  1.83081572E-01  5.51736515E-02  3.32368750E-02 -1.29516937E-02
  1.33704422E-01  4.04897429E-01 -6.66342528E-03  2.14337532E-01  5.33778393E-01
 -7.74100340E-03 -1.50329905E-02 -1.28543444E-01  1.09589539E-01 -4.59559916E-01
  9.53191006E-02  1.33044664E-01 -2.93968230E-01  8.11914408E-02  3.51452903E-02
  2.19556452E-01  1.82764719E-01  3.25844173E-02  1.58298313E-01  1.37131150E-01
  2.40943345E-01  3.79082732E-02  2.08179684E-02  1.46710112E-01 -1.55460440E-01
 -1.77386952E-01  4.25690646E-02 -1.99214003E-01 -1.72400304E-01  2.54225588E-01
 -1.78414899E-03  8.39628726E-03  1.21450125E-01  1.48380840E-01 -9.29589209E-02
 -5.60950533E-03  1.61073399E-01 -2.83795051E-03 -4.24314508E-02  2.96997236E-03
 -1.83277866E-01 -1.25632410E-01 -2.60037722E-02  2.99335741E-02  1.68625706E-02
  6.52070300E-02 -1.87795505E-02  2.46420075E-01  4.26499934E-01 -3.38982806E-02
 -5.79051005E-03 -3.07254761E-02 -2.59721986E-01 -1.49004791E-01 -1.08269967E-01
 -1.76200220E-01 -9.93684226E-02  1.24466870E-01 -1.44416512E-02  4.94753351E-02
  9.94207766E-02  6.26048109E-02  9.98296918E-02  4.71532999E-02  1.09263883E-01
  1.73387395E-01 -2.57732544E-03 -1.20441942E-01 -1.99332904E-01  3.26128831E-01
  1.63319372E-02 -2.46829676E-01  2.41542069E-01 -1.03908054E-01 -5.71275798E-03
 -1.67868802E-01 -2.09679524E-01 -9.55105177E-02  2.25968591E-01 -9.28104692E-02
 -2.32903357E-01 -9.60476134E-02 -8.35760155E-03 -1.05025477E-01  1.43490671E-01
  1.95308499E-01 -6.63038952E-03 -8.44260468E-02 -1.53654257E-01 -2.24788445E-01
 -8.34421510E-02  3.05982686E-01  2.04864967E-01 -3.93659096E-02 -7.71036434E-03
  5.00640395E-02 -8.86686288E-02  2.15084870E-01  8.25850221E-02  2.23240663E-01
 -1.36394566E-01  9.84691734E-02 -1.71698920E-01  3.60839211E-01  1.97788952E-01
  2.53959826E-02  1.91076302E-01  2.85315358E-01  5.00342986E-02 -3.00788729E-01
  7.22325547E-02 -2.43279715E-01 -6.77260820E-02 -5.54279710E-02  1.79401253E-02
  3.20943687E-01  1.03683879E-01  3.17634527E-02 -6.93495249E-02  2.43068394E-01
 -1.38329836E-01 -4.94744834E-03  1.64870994E-01  2.05005091E-01 -1.44621308E-01
 -9.71057152E-02 -7.82720783E-02  1.06218019E-01  7.81920495E-02  1.15953080E-01
 -2.84245121E-02  2.05164701E-02  9.22019282E-02  1.01942294E-01  4.26654433E-02
 -1.34859945E-01 -1.99823944E-01  1.70384716E-02 -4.11061347E-03 -5.68188267E-02
 -2.36354116E-01 -5.52890186E-02  7.20145685E-02  8.32753142E-02  3.14518054E-02
  1.43974226E-01  1.70463682E-01  3.07011505E-01 -2.36404912E-01  1.58126005E-01
 -2.92208299E-01  1.43991269E-01 -2.69818843E-01 -1.36470237E-02  3.67576167E-01
  2.00801651E-02  1.59988810E-01  6.70325781E-02  2.69156181E-01  8.79110259E-03
 -2.02487991E-02  1.17005617E-02  2.07343505E-01 -5.96261957E-02  2.34250567E-01
  9.76908329E-02 -2.40405040E-01 -7.32270959E-02 -2.03084010E-02 -1.82706134E-01
  5.87630030E-02 -9.98565127E-02  2.32446196E-02  1.62508049E-01 -2.12598737E-03
 -1.03923158E-01 -6.47771615E-02 -2.15729489E-02  1.15348156E-01  3.12769523E-02
  1.48921671E-02 -8.73739769E-04  3.70245551E-02  9.20263810E-03 -2.18026239E-01
  1.10590730E-02  1.22988720E-02  1.69619424E-01  4.91491732E-02 -1.88274286E-01
  1.23955984E-01  4.05635887E-03 -1.64758978E-01 -1.13621397E-01 -2.12916195E-01
 -5.30755182E-02 -4.27878203E-02 -1.11899792E-01  4.00262687E-03  2.80437237E-01
 -3.53765394E-02 -3.25159784E-01 -2.42077985E-02 -7.15853648E-02  7.05678863E-02
  3.60123016E-01 -1.34293408E-01 -7.90775508E-02 -2.52479244E-01  2.35084519E-01
  3.58226355E-01 -3.74252203E-02 -2.45542174E-01 -1.03215756E-01 -2.09718800E-01
 -1.33579777E-01  2.42024894E-02  1.20628994E-01 -1.04446090E-01 -1.59439237E-01
  5.51793941E-02  5.12023004E-02  1.54638281E-02 -6.59561160E-02  6.55840662E-02
  2.34307416E-03  2.89132896E-03  2.87851561E-03  2.26492116E-02 -1.03030984E-01
 -4.98929312E-02  1.80881687E-01 -3.35757112E-02 -6.48943653E-02 -2.00081889E-01
 -1.78833598E-01  2.28964059E-01 -9.81124752E-02  3.08574268E-01 -4.01416951E-02
  1.24097999E-01 -4.79019825E-02 -1.67507159E-01 -9.85866276E-02  2.97780662E-02
 -2.29732874E-02 -1.74757642E-02  1.06753064E-01 -3.82303011E-02  1.34607019E-01
  2.42178103E-01 -1.71320849E-01  2.30380995E-01  1.83357584E-01 -2.64833410E-01
 -1.86768610E-01 -3.11588037E-02 -2.63894846E-01  2.69225590E-02 -2.45790803E-01
 -1.79356686E-02  2.18278292E-01 -3.86637404E-02 -2.68649740E-01  7.98660123E-02
  7.13014676E-02  3.78509079E-02 -6.26002092E-02 -6.37620606E-02 -9.79750443E-03
  2.21049757E-03 -3.79302271E-02  1.46436467E-01 -5.53060007E-02 -7.51449073E-02
  2.99882554E-01 -3.26099346E-03 -9.55445598E-02  4.40874992E-02 -1.41611144E-01
 -1.81306001E-02 -8.15848008E-02 -4.27060477E-03 -1.28083372E-01  8.49181468E-02
  7.02077596E-02 -5.94048410E-02  1.54692437E-01 -2.73025402E-03 -1.17123498E-02
  2.31116126E-02 -1.41850541E-01  1.24614214E-02  6.87391599E-02  1.21621194E-01
  4.60894311E-01  1.26134288E-01  8.15978183E-02 -1.80238987E-01  4.39749183E-01
 -8.75365731E-02 -3.17771432E-01 -6.13965747E-02  2.70068850E-01  1.13764420E-01
  2.65323781E-01 -2.16974330E-02  1.66369424E-01 -1.25877114E-01 -9.50968652E-02
 -1.32265353E-02  3.41943240E-02  1.20674680E-01  3.91743173E-02  1.96953008E-02
  7.31100382E-02  8.35682944E-02  6.43649562E-02  2.08976505E-01  6.94937938E-02
 -2.58445044E-03  4.87852298E-01  8.55149010E-02 -2.40268375E-01  9.09976710E-03
  5.30874261E-01  1.16781984E-01 -2.27783379E-01 -9.11845444E-03  3.45190682E-01
  6.66053608E-02 -1.28667090E-01  4.57175883E-02 -7.78503033E-02  3.51191426E-02
  2.90279430E-02 -4.41962181E-02  1.73795741E-01 -5.34401559E-02  5.93347697E-02
 -4.77473364E-02  2.20730699E-01  8.27891496E-02  6.81487710E-02 -1.01998005E-01
  1.28713517E-02 -1.22391111E-01  3.38673091E-02  2.00851619E-02 -1.01223291E-02
 -5.34909203E-02  9.42240951E-03  1.33190039E-01  9.18028424E-02  3.99450932E-02
 -1.14517473E-02 -1.50983005E-01 -3.98826027E-02 -2.29204082E-02 -1.02548237E-01
  2.80321216E-02 -6.10394320E-02 -2.06305118E-03 -5.96541389E-03  1.77258652E-02
 -2.24388003E-02 -1.71114789E-01 -9.54232117E-02  1.29217877E-01 -5.10329511E-02
  2.48869311E-01  3.62480334E-02 -1.30824856E-01 -5.34191194E-02  1.81626072E-01
 -1.77854856E-02  2.18462102E-01 -5.40908004E-02  2.69563949E-01  3.46601506E-02
  2.50517720E-02  9.21761940E-02 -6.03898800E-04 -1.73731926E-01 -2.80959350E-02
  1.70257162E-01  1.17353620E-01 -2.40378481E-01 -1.00505877E-01  2.44660668E-02