 Entering Gaussian System, Link 0=g16
 Input=NCCONCCOCCCNCCOCCCNCCOCCNCCNNCCONCCOCCCNCCOCOCNCCOCOCNCCOCCCNCCOCO_7.gjf
 Output=NCCONCCOCCCNCCOCCCNCCOCCNCCNNCCONCCOCCCNCCOCOCNCCOCOCNCCOCCCNCCOCO_7.log
 Initial command:
 /work/01114/jfonner/frontera/gaussian/16rC.01/g16/l1.exe "/scratch1/08249/sa748948/lsqc/26989325/Gau-41087.inp" -scrdir="/scratch1/08249/sa748948/lsqc/26989325/"
 Entering Link 1 = /work/01114/jfonner/frontera/gaussian/16rC.01/g16/l1.exe PID=     41097.
  
 Copyright (c) 1988-2019, Gaussian, Inc.  All Rights Reserved.
  
 This is part of the Gaussian(R) 16 program.  It is based on
 the Gaussian(R) 09 system (copyright 2009, Gaussian, Inc.),
 the Gaussian(R) 03 system (copyright 2003, Gaussian, Inc.),
 the Gaussian(R) 98 system (copyright 1998, Gaussian, Inc.),
 the Gaussian(R) 94 system (copyright 1995, Gaussian, Inc.),
 the Gaussian 92(TM) system (copyright 1992, Gaussian, Inc.),
 the Gaussian 90(TM) system (copyright 1990, Gaussian, Inc.),
 the Gaussian 88(TM) system (copyright 1988, Gaussian, Inc.),
 the Gaussian 86(TM) system (copyright 1986, Carnegie Mellon
 University), and the Gaussian 82(TM) system (copyright 1983,
 Carnegie Mellon University). Gaussian is a federally registered
 trademark of Gaussian, Inc.
  
 This software contains proprietary and confidential information,
 including trade secrets, belonging to Gaussian, Inc.
  
 This software is provided under written license and may be
 used, copied, transmitted, or stored only in accord with that
 written license.
  
 The following legend is applicable only to US Government
 contracts under FAR:
  
                    RESTRICTED RIGHTS LEGEND
  
 Use, reproduction and disclosure by the US Government is
 subject to restrictions as set forth in subparagraphs (a)
 and (c) of the Commercial Computer Software - Restricted
 Rights clause in FAR 52.227-19.
  
 Gaussian, Inc.
 340 Quinnipiac St., Bldg. 40, Wallingford CT 06492
  
  
 ---------------------------------------------------------------
 Warning -- This program may not be used in any manner that
 competes with the business of Gaussian, Inc. or will provide
 assistance to any competitor of Gaussian, Inc.  The licensee
 of this program is prohibited from giving any competitor of
 Gaussian, Inc. access to this program.  By using this program,
 the user acknowledges that Gaussian, Inc. is engaged in the
 business of creating and licensing software in the field of
 computational chemistry and represents and warrants to the
 licensee that it is not a competitor of Gaussian, Inc. and that
 it will not use this program in any manner prohibited above.
 ---------------------------------------------------------------
  

 Cite this work as:
 Gaussian 16, Revision C.01,
 M. J. Frisch, G. W. Trucks, H. B. Schlegel, G. E. Scuseria, 
 M. A. Robb, J. R. Cheeseman, G. Scalmani, V. Barone, 
 G. A. Petersson, H. Nakatsuji, X. Li, M. Caricato, A. V. Marenich, 
 J. Bloino, B. G. Janesko, R. Gomperts, B. Mennucci, H. P. Hratchian, 
 J. V. Ortiz, A. F. Izmaylov, J. L. Sonnenberg, D. Williams-Young, 
 F. Ding, F. Lipparini, F. Egidi, J. Goings, B. Peng, A. Petrone, 
 T. Henderson, D. Ranasinghe, V. G. Zakrzewski, J. Gao, N. Rega, 
 G. Zheng, W. Liang, M. Hada, M. Ehara, K. Toyota, R. Fukuda, 
 J. Hasegawa, M. Ishida, T. Nakajima, Y. Honda, O. Kitao, H. Nakai, 
 T. Vreven, K. Throssell, J. A. Montgomery, Jr., J. E. Peralta, 
 F. Ogliaro, M. J. Bearpark, J. J. Heyd, E. N. Brothers, K. N. Kudin, 
 V. N. Staroverov, T. A. Keith, R. Kobayashi, J. Normand, 
 K. Raghavachari, A. P. Rendell, J. C. Burant, S. S. Iyengar, 
 J. Tomasi, M. Cossi, J. M. Millam, M. Klene, C. Adamo, R. Cammi, 
 J. W. Ochterski, R. L. Martin, K. Morokuma, O. Farkas, 
 J. B. Foresman, and D. J. Fox, Gaussian, Inc., Wallingford CT, 2019.
 
 ******************************************
 Gaussian 16:  ES64L-G16RevC.01  3-Jul-2019
                 7-Jan-2022 
 ******************************************
 %chk=NCCONCCOCCCNCCOCCCNCCOCCNCCNNCCONCCOCCCNCCOCOCNCCOCOCNCCOCCCNCCOCO_7.chk
 %nproc=56
 Will use up to   56 processors via shared memory.
 %mem=3gb
 ---------------------------------
 #p int=acc2e=12 pm6 charge nosymm
 ---------------------------------
 1/18=10,28=-2,38=1,125=101,172=1/1;
 2/12=2,15=1,17=6,18=5,40=1/2;
 3/5=2,25=1,27=12,41=3900000/1,2,3;
 4/35=1/1;
 5/5=2,35=1,38=5,87=12/2;
 6/7=2,8=2,9=2,10=2,28=1,87=12/1;
 99/5=1,9=1/99;
 Leave Link    1 at Fri Jan  7 12:00:13 2022, MaxMem=   402653184 cpu:               2.6 elap:               0.5
 (Enter /work/01114/jfonner/frontera/gaussian/16rC.01/g16/l101.exe)
 --------------
 Atom number=26
 --------------
 Symbolic Z-matrix:
 Charge =  1 Multiplicity = 1
 c                     3.006     0.047     14.36101 
 o                     2.95799  -1.169     14.515 
 n                     3.481     0.887     15.26199 
 c                     4.163     0.39199   16.44199 
 c                     3.424     0.96499   17.63099 
 o                     3.136     2.11      17.61199 
 n                     3.173     0.129     18.647 
 c                     2.559     0.51601   19.90301 
 c                     5.688     0.75001   16.38901 
 o                     6.264     0.13001   15.23599 
 c                     3.34999  -0.12201   21.01401 
 o                     3.366    -1.33901   21.14 
 n                     4.067     0.68799   21.76799 
 c                     4.888     0.205     22.851 
 c                     4.35001   0.76901   24.17399 
 o                     4.16101   1.98101   24.26899 
 n                     4.06501  -0.11998   25.15099 
 c                     3.72001   0.31301   26.51501 
 c                     1.13798  -0.021     19.98301 
 o                     0.393     0.39401   18.824 
 c                     0.486     0.501     21.167 
 h                     2.70244   0.50123   13.441 
 h                     6.2137    0.36219   17.23644 
 h                     5.91043   0.48869   22.71297 
 h                     4.5741    0.19198   27.14808 
 h                     2.86416  -0.20219   26.89841 
 
 ITRead=  0  0  0  0  0  0  0  0  0  0  0  0  0  0  0  0  0  0  0  0
 ITRead=  0  0  0  0  0  0
 MicOpt= -1 -1 -1 -1 -1 -1 -1 -1 -1 -1 -1 -1 -1 -1 -1 -1 -1 -1 -1 -1
 MicOpt= -1 -1 -1 -1 -1 -1
 NAtoms=     26 NQM=       26 NQMF=       0 NMMI=      0 NMMIF=      0
                NMic=       0 NMicF=      0.
                    Isotopes and Nuclear Properties:
 (Nuclear quadrupole moments (NQMom) in fm**2, nuclear magnetic moments (NMagM)
  in nuclear magnetons)

  Atom         1           2           3           4           5           6           7           8           9          10
 IAtWgt=          12          16          14          12          12          16          14          12          12          16
 AtmWgt=  12.0000000  15.9949146  14.0030740  12.0000000  12.0000000  15.9949146  14.0030740  12.0000000  12.0000000  15.9949146
 NucSpn=           0           0           2           0           0           0           2           0           0           0
 AtZEff=  -0.0000000  -0.0000000  -0.0000000  -0.0000000  -0.0000000  -0.0000000  -0.0000000  -0.0000000  -0.0000000  -0.0000000
 NQMom=    0.0000000   0.0000000   2.0440000   0.0000000   0.0000000   0.0000000   2.0440000   0.0000000   0.0000000   0.0000000
 NMagM=    0.0000000   0.0000000   0.4037610   0.0000000   0.0000000   0.0000000   0.4037610   0.0000000   0.0000000   0.0000000
 AtZNuc=   6.0000000   8.0000000   7.0000000   6.0000000   6.0000000   8.0000000   7.0000000   6.0000000   6.0000000   8.0000000

  Atom        11          12          13          14          15          16          17          18          19          20
 IAtWgt=          12          16          14          12          12          16          14          12          12          16
 AtmWgt=  12.0000000  15.9949146  14.0030740  12.0000000  12.0000000  15.9949146  14.0030740  12.0000000  12.0000000  15.9949146
 NucSpn=           0           0           2           0           0           0           2           0           0           0
 AtZEff=  -0.0000000  -0.0000000  -0.0000000  -0.0000000  -0.0000000  -0.0000000  -0.0000000  -0.0000000  -0.0000000  -0.0000000
 NQMom=    0.0000000   0.0000000   2.0440000   0.0000000   0.0000000   0.0000000   2.0440000   0.0000000   0.0000000   0.0000000
 NMagM=    0.0000000   0.0000000   0.4037610   0.0000000   0.0000000   0.0000000   0.4037610   0.0000000   0.0000000   0.0000000
 AtZNuc=   6.0000000   8.0000000   7.0000000   6.0000000   6.0000000   8.0000000   7.0000000   6.0000000   6.0000000   8.0000000

  Atom        21          22          23          24          25          26
 IAtWgt=          12           1           1           1           1           1
 AtmWgt=  12.0000000   1.0078250   1.0078250   1.0078250   1.0078250   1.0078250
 NucSpn=           0           1           1           1           1           1
 AtZEff=  -0.0000000  -0.0000000  -0.0000000  -0.0000000  -0.0000000  -0.0000000
 NQMom=    0.0000000   0.0000000   0.0000000   0.0000000   0.0000000   0.0000000
 NMagM=    0.0000000   2.7928460   2.7928460   2.7928460   2.7928460   2.7928460
 AtZNuc=   6.0000000   1.0000000   1.0000000   1.0000000   1.0000000   1.0000000
 Background charge distribution read from input stream:
 Point Charges:
 XYZ=   -6.8150   -0.6680    1.6070 Q=    0.1840 A=    0.0000 R=    0.0000 C=    0.0000
 XYZ=   -5.7140    0.0020    2.3730 Q=    0.1690 A=    0.0000 R=    0.0000 C=    0.0000
 XYZ=   -4.3570   -0.6730    2.5880 Q=    0.1957 A=    0.0000 R=    0.0000 C=    0.0000
 XYZ=   -4.2120   -1.8700    2.4920 Q=   -0.4612 A=    0.0000 R=    0.0000 C=    0.0000
 XYZ=   -3.3810    0.1250    2.9530 Q=   -0.3003 A=    0.0000 R=    0.0000 C=    0.0000
 XYZ=   -2.0620   -0.3900    3.2740 Q=    0.2639 A=    0.0000 R=    0.0000 C=    0.0000
 XYZ=   -1.6360    0.1750    4.6000 Q=    0.1489 A=    0.0000 R=    0.0000 C=    0.0000
 XYZ=   -1.7440    1.3560    4.8620 Q=   -0.3095 A=    0.0000 R=    0.0000 C=    0.0000
 XYZ=   -0.9930   -0.0450    2.1970 Q=   -1.2213 A=    0.0000 R=    0.0000 C=    0.0000
 XYZ=    0.3900   -0.4880    2.6400 Q=    0.9359 A=    0.0000 R=    0.0000 C=    0.0000
 XYZ=   -1.3780   -0.6620    0.8970 Q=    0.8742 A=    0.0000 R=    0.0000 C=    0.0000
 XYZ=   -1.0950   -0.7000    5.4150 Q=   -0.4278 A=    0.0000 R=    0.0000 C=    0.0000
 XYZ=   -0.5720   -0.3110    6.6690 Q=    0.2444 A=    0.0000 R=    0.0000 C=    0.0000
 XYZ=    0.8400   -0.8540    6.7920 Q=    0.2936 A=    0.0000 R=    0.0000 C=    0.0000
 XYZ=    1.0270   -2.0220    6.7200 Q=   -0.4614 A=    0.0000 R=    0.0000 C=    0.0000
 XYZ=   -1.4110   -0.9130    7.7970 Q=   -1.2094 A=    0.0000 R=    0.0000 C=    0.0000
 XYZ=   -0.7270   -0.6450    9.1230 Q=    0.9838 A=    0.0000 R=    0.0000 C=    0.0000
 XYZ=   -2.8000   -0.3490    7.7890 Q=    0.9737 A=    0.0000 R=    0.0000 C=    0.0000
 XYZ=    1.8100    0.0020    7.0230 Q=   -0.6094 A=    0.0000 R=    0.0000 C=    0.0000
 XYZ=    3.1910   -0.4290    7.1010 Q=   -0.0383 A=    0.0000 R=    0.0000 C=    0.0000
 XYZ=    3.9110    0.2580    8.2290 Q=    0.2652 A=    0.0000 R=    0.0000 C=    0.0000
 XYZ=    4.0640    1.4780    8.2280 Q=   -0.5489 A=    0.0000 R=    0.0000 C=    0.0000
 XYZ=    3.8710   -0.1030    5.7480 Q=    0.4467 A=    0.0000 R=    0.0000 C=    0.0000
 XYZ=    5.2470   -0.6430    5.5810 Q=   -0.4177 A=    0.0000 R=    0.0000 C=    0.0000
 XYZ=    5.8610   -0.6890    4.3530 Q=   -0.2968 A=    0.0000 R=    0.0000 C=    0.0000
 XYZ=    6.1080   -1.1970    6.4480 Q=    0.2630 A=    0.0000 R=    0.0000 C=    0.0000
 XYZ=    7.0590   -1.2270    4.4820 Q=    0.6103 A=    0.0000 R=    0.0000 C=    0.0000
 XYZ=    7.2390   -1.5230    5.7510 Q=   -0.3347 A=    0.0000 R=    0.0000 C=    0.0000
 XYZ=    4.3640   -0.5270    9.1890 Q=   -0.5070 A=    0.0000 R=    0.0000 C=    0.0000
 XYZ=    5.0670    0.0200   10.3260 Q=    0.3996 A=    0.0000 R=    0.0000 C=    0.0000
 XYZ=    4.2710    0.8170   11.2960 Q=    0.1621 A=    0.0000 R=    0.0000 C=    0.0000
 XYZ=    4.3590    2.0330   11.3670 Q=   -0.2980 A=    0.0000 R=    0.0000 C=    0.0000
 XYZ=    3.4920    0.1040   12.0730 Q=   -0.4667 A=    0.0000 R=    0.0000 C=    0.0000
 XYZ=    2.5850    0.6770   13.0850 Q=    0.2746 A=    0.0000 R=    0.0000 C=    0.0000
 XYZ=    1.1270    0.3300   12.8270 Q=   -1.2217 A=    0.0000 R=    0.0000 C=    0.0000
 XYZ=    0.2480    0.6750   14.0380 Q=    0.9822 A=    0.0000 R=    0.0000 C=    0.0000
 XYZ=    0.6740    1.0470   11.5960 Q=    0.9278 A=    0.0000 R=    0.0000 C=    0.0000
 XYZ=    6.4200    0.2100   17.5690 Q=    0.9463 A=    0.0000 R=    0.0000 C=    0.0000
 XYZ=    6.3620    0.6140   22.6520 Q=   -1.1933 A=    0.0000 R=    0.0000 C=    0.0000
 XYZ=    7.1520    0.2970   23.8740 Q=    0.8585 A=    0.0000 R=    0.0000 C=    0.0000
 XYZ=    6.9530   -0.1210   21.4550 Q=    0.9590 A=    0.0000 R=    0.0000 C=    0.0000
 XYZ=    4.9410    0.1400   27.4200 Q=    0.0549 A=    0.0000 R=    0.0000 C=    0.0000
 XYZ=    5.7140   -0.8090   27.2870 Q=   -0.0565 A=    0.0000 R=    0.0000 C=    0.0000
 XYZ=    2.4990   -0.4220   27.0620 Q=    1.1023 A=    0.0000 R=    0.0000 C=    0.0000
 XYZ=    5.2500    0.9550   28.2940 Q=    0.3115 A=    0.0000 R=    0.0000 C=    0.0000
 Pt Chg Charge=              3.4512 electrons
 Pt Chg Dipole moment (Debye):
    X=             51.1866    Y=             -0.3078    Z=            354.0210  Tot=            357.7025
 Pt Chg Quadrupole moment (Debye-Ang):
   XX=            487.9066   YY=            -20.9893   ZZ=           8441.4796
   XY=            -29.9879   XZ=           1425.5637   YZ=             -3.2009
 Pt Chg Traceless Quadrupole moment (Debye-Ang):
   XX=          -2481.5590   YY=          -2990.4549   ZZ=           5472.0139
   XY=            -29.9879   XZ=           1425.5637   YZ=             -3.2009
 Pt Chg Octapole moment (Debye-Ang**2):
  XXX=           2720.3466  YYY=             15.4852  ZZZ=         205408.7320  XYY=            -12.1874
  XXY=           -128.6663  XXZ=           9583.9196  XZZ=          35341.4325  YZZ=           -644.1619
  YYZ=           -101.2999  XYZ=           -318.3684
 Pt Chg Hexadecapole moment (Debye-Ang**3):
 XXXX=          24878.0414 YYYY=           -100.4671 ZZZZ=        5140767.6792 XXXY=           -818.1893
 XXXZ=          62594.7710 YYYX=           -121.8104 YYYZ=             42.7761 ZZZX=         864207.2686
 ZZZY=         -21655.0496 XXYY=           -307.0911 XXZZ=         213155.1726 YYZZ=            203.1298
 XXYZ=          -1405.3409 YYXZ=           -322.7124 ZZXY=          -4550.2006
 Leave Link  101 at Fri Jan  7 12:00:15 2022, MaxMem=   402653184 cpu:               8.4 elap:               1.4
 (Enter /work/01114/jfonner/frontera/gaussian/16rC.01/g16/l202.exe)
                          Input orientation:                          
 ---------------------------------------------------------------------
 Center     Atomic      Atomic             Coordinates (Angstroms)
 Number     Number       Type             X           Y           Z
 ---------------------------------------------------------------------
      1          6           0        3.005998    0.046997   14.361015
      2          8           0        2.957993   -1.169004   14.515002
      3          7           0        3.481002    0.887001   15.261988
      4          6           0        4.163003    0.391994   16.441992
      5          6           0        3.424000    0.964988   17.630990
      6          8           0        3.136003    2.109999   17.611994
      7          7           0        3.173005    0.128997   18.646999
      8          6           0        2.559005    0.516008   19.903015
      9          6           0        5.687995    0.750014   16.389012
     10          8           0        6.263999    0.130006   15.235994
     11          6           0        3.349988   -0.122005   21.014006
     12          8           0        3.366002   -1.339011   21.139999
     13          7           0        4.066999    0.687993   21.767989
     14          6           0        4.888004    0.204996   22.850999
     15          6           0        4.350006    0.769010   24.173991
     16          8           0        4.161012    1.981015   24.268993
     17          7           0        4.065009   -0.119983   25.150991
     18          6           0        3.720007    0.313006   26.515009
     19          6           0        1.137983   -0.021002   19.983013
     20          8           0        0.392999    0.394012   18.823998
     21          6           0        0.485998    0.501003   21.167001
     22          1           0        2.702444    0.501228   13.440999
     23          1           0        6.213698    0.362193   17.236438
     24          1           0        5.910435    0.488692   22.712967
     25          1           0        4.574102    0.191979   27.148076
     26          1           0        2.864158   -0.202189   26.898412
 ---------------------------------------------------------------------
                    Distance matrix (angstroms):
                    1          2          3          4          5
     1  C    0.000000
     2  O    1.226652   0.000000
     3  N    1.320224   2.249152   0.000000
     4  C    2.405858   2.757182   1.450023   0.000000
     5  C    3.422013   3.805321   2.370971   1.512668   0.000000
     6  O    3.852499   4.513858   2.671568   2.318443   1.180828
     7  N    4.290021   4.336409   3.482490   2.431321   1.339460
     8  C    5.579744   5.659429   4.746245   3.816657   2.472224
     9  C    3.435130   3.827200   2.481888   1.567351   2.591216
    10  O    3.374471   3.624491   2.884232   2.436648   3.807729
    11  C    6.664022   6.594461   5.841316   4.672098   3.554128
    12  O    6.928582   6.639725   6.286443   5.069798   4.198203
    13  N    7.509985   7.568629   6.535369   5.335080   4.195823
    14  C    8.697514   8.666121   7.748411   6.452593   5.474430
    15  C    9.930869   9.949355   8.955048   7.743444   6.611108
    16  O   10.160832  10.320378   9.098649   7.986672   6.755632
    17  N   10.843107  10.744775   9.957282   8.724585   7.624858
    18  C   12.177855  12.115163  11.270185  10.083063   8.912827
    19  C    5.924607   5.876180   5.348110   4.675483   3.424917
    20  O    5.183281   5.252586   4.739907   4.459472   3.307000
    21  C    7.271724   7.290320   6.632361   5.988151   4.620661
    22  H    1.070000   2.002115   2.017666   3.339330   4.276885
    23  H    4.319346   4.511141   3.411965   2.199405   2.881223
    24  H    8.853584   8.869695   7.847158   6.510606   5.677649
    25  H   12.883668  12.808538  11.956463  10.715841   9.617442
    26  H   12.540675  12.421448  11.703554  10.553519   9.357394
                    6          7          8          9         10
     6  O    0.000000
     7  N    2.235392   0.000000
     8  C    2.850002   1.450637   0.000000
     9  C    3.139731   3.436473   4.711004   0.000000
    10  O    4.398876   4.603173   5.971354   1.430259   0.000000
    11  C    4.074472   2.386848   1.505662   5.255214   6.476140
    12  O    4.939169   2.899541   2.371175   5.685733   6.738967
    13  N    4.490117   3.294279   2.404528   5.618262   6.914124
    14  C    5.843433   4.540992   3.769824   6.534088   7.738687
    15  C    6.806751   5.687054   4.638204   7.899144   9.162941
    16  O    6.736684   6.001078   4.875903   8.120415   9.457476
    17  N    7.916587   6.569594   5.496707   8.953394  10.158997
    18  C    9.101314   7.889147   6.716220  10.324717  11.563804
    19  C    3.762311   2.439005   1.521211   5.849267   6.988064
    20  O    3.455089   2.798213   2.422961   5.838911   6.885646
    21  C    4.716935   3.702540   2.428012   7.067670   8.288533
    22  H    4.491472   5.240461   6.463625   4.203117   4.005558
    23  H    3.559223   3.360041   4.526706   1.070000   2.014502
    24  H    6.028767   4.914773   4.373632   6.333260   7.493916
    25  H    9.832791   8.615993   7.527053  10.830957  12.031512
    26  H    9.573801   8.263829   7.038786  10.923746  12.152418
                   11         12         13         14         15
    11  C    0.000000
    12  O    1.223615   0.000000
    13  N    1.318595   2.234841   0.000000
    14  C    2.418050   2.761878   1.442305   0.000000
    15  C    3.432120   3.823235   2.423943   1.535533   0.000000
    16  O    3.959216   4.630898   2.817049   2.386099   1.230325
    17  N    4.198321   4.250023   3.478151   2.464325   1.351319
    18  C    5.530568   5.634289   4.774434   3.847188   2.466821
    19  C    2.442563   2.835459   3.502563   4.726423   5.339055
    20  O    3.715668   4.148008   4.717179   6.038007   6.664904
    21  C    2.934959   3.417718   3.635893   4.722407   4.903506
    22  H    7.626151   7.943638   8.440122   9.665016  10.862011
    23  H    4.765008   5.122621   5.024879   5.771088   7.195032
    24  H    3.132939   3.505548   2.081096   1.070000   2.155947
    25  H    6.262895   6.316679   5.426649   4.308547   3.037822
    26  H    5.904971   5.890970   5.344201   4.543490   3.251683
                   16         17         18         19         20
    16  O    0.000000
    17  N    2.280642   0.000000
    18  C    2.832195   1.472091   0.000000
    19  C    5.613946   5.940141   7.031741   0.000000
    20  O    6.809145   7.333395   8.380166   1.438941   0.000000
    21  C    5.031750   5.391393   6.252627   1.448931   2.347287
    22  H   11.025545  11.805355  13.114900   6.746719   5.858474
    23  H    7.502728   8.215200   9.607954   5.783890   6.033398
    24  H    2.776459   3.117699   4.391397   5.521660   6.750936
    25  H    3.414734   2.084429   1.070000   7.949239   9.317334
    26  H    3.655414   2.121857   1.070000   7.129884   8.465118
                   21         22         23         24         25
    21  C    0.000000
    22  H    8.037645   0.000000
    23  H    6.948031   5.172388   0.000000
    24  H    5.640450   9.811257   5.486377   0.000000
    25  H    7.251300  13.837728  10.047776   4.641553   0.000000
    26  H    6.244933  13.476754  10.241663   5.222553   1.772459
                   26
    26  H    0.000000
 Symmetry turned off by external request.
 Stoichiometry    C11H5N4O6(1+)
 Framework group  C1[X(C11H5N4O6)]
 Deg. of freedom    72
 Full point group                 C1      NOp   1
 Rotational constants (GHZ):           0.6333532           0.1282452           0.1162134
 Leave Link  202 at Fri Jan  7 12:00:15 2022, MaxMem=   402653184 cpu:               2.5 elap:               0.4
 (Enter /work/01114/jfonner/frontera/gaussian/16rC.01/g16/l301.exe)
 Standard basis: VSTO-6G (5D, 7F)
 Ernie: Thresh=  0.10000D-02 Tol=  0.10000D-05 Strict=F.
  NNHCO=     0 NNPyr=     0 NCTC=     0               EPep=         0.000000000
    EC=       663.618815331  ECS=         6.272371374   EG=         0.568693987
   EHC=         0.002230941  EAt=      -137.663748154  AtH=         4.700572853
 EPDDG=         0.000000000  ECC=       670.462111634 EAtT=       142.364321007
    89 basis functions,   534 primitive gaussians,    89 cartesian basis functions
    52 alpha electrons       52 beta electrons
       nuclear repulsion energy       812.8264326408 Hartrees.
 IExCor=    0 DFT=F Ex=HF Corr=None ExCW=0 ScaHFX=  1.000000
 ScaDFX=  1.000000  1.000000  1.000000  1.000000 ScalE2=  1.000000  1.000000
 IRadAn=      5 IRanWt=     -1 IRanGd=            0 ICorTp=0 IEmpDi=  4
 Integral buffers will be    131072 words long.
 Regular integral format.
 Two-electron integral symmetry is turned off.
 Background charge distribution read from rwf.
 PtFMM for NChg=        71 BoxLen=    40.00 Levels= 1 LMax=20 SMax=    51.8 ICnFMM=     1:
 Self energy of the charges =        -2.9182516391 a.u.
 MM   energy of the charges =         0.0000000000 a.u.
 Nuclei-charges interaction =        34.4276639481 a.u.
 Nuclear repulsion after external point charges =      844.3358449498 Hartrees.
 Leave Link  301 at Fri Jan  7 12:00:16 2022, MaxMem=   402653184 cpu:               4.5 elap:               0.8
 (Enter /work/01114/jfonner/frontera/gaussian/16rC.01/g16/l302.exe)
 Do NDO integrals.
 NPDir=0 NMtPBC=     1 NCelOv=     1 NCel=       1 NClECP=     1 NCelD=      1
         NCelK=      1 NCelE2=     1 NClLst=     1 CellRange=     0.0.
 One-electron integrals computed using PRISM.
 NBasis=    89 RedAO= F EigKep=  0.00D+00  NBF=    89
 NBsUse=    89 1.00D-04 EigRej=  0.00D+00 NBFU=    89
 Leave Link  302 at Fri Jan  7 12:00:20 2022, MaxMem=   402653184 cpu:              21.3 elap:               4.0
 (Enter /work/01114/jfonner/frontera/gaussian/16rC.01/g16/l303.exe)
 DipDrv:  MaxL=1.
 Leave Link  303 at Fri Jan  7 12:00:21 2022, MaxMem=   402653184 cpu:               3.6 elap:               0.6
 (Enter /work/01114/jfonner/frontera/gaussian/16rC.01/g16/l401.exe)
 Simple Huckel Guess.
 JPrj=0 DoOrth=F DoCkMO=F.
 Leave Link  401 at Fri Jan  7 12:00:23 2022, MaxMem=   402653184 cpu:              14.1 elap:               2.6
 (Enter /work/01114/jfonner/frontera/gaussian/16rC.01/g16/l502.exe)
 Keep J ints in memory in canonical form, NReq=883584.
 FoFCou: FMM=F IPFlag=           0 FMFlag=           0 FMFlg1=           0
         NFxFlg=           0 DoJE=F BraDBF=F KetDBF=F FulRan=T
         wScrn=  0.000000 ICntrl=       600 IOpCl=  2 I1Cent=           0 NGrid=           0
         NMat0=    1 NMatS0=    215 NMatT0=    0 NMatD0=    1 NMtDS0=    0 NMtDT0=    0
 Symmetry not used in FoFCou.
 Two-electron integral symmetry not used.
 Closed shell SCF:
 Using DIIS extrapolation, IDIIS=  1040.
 Overlap will be assumed to be unity.
 NGot=   402653184 LenX=   402548299 LenY=   402539937
 Requested convergence on RMS density matrix=1.00D-08 within 128 cycles.
 Requested convergence on MAX density matrix=1.00D-06.
 Requested convergence on             energy=1.00D-06.
 No special actions if energy rises.

 Cycle   1  Pass 1  IDiag  1:
 E= 0.899784494291339    
 DIIS: error= 8.16D-02 at cycle   1 NSaved=   1.
 NSaved= 1 IEnMin= 1 EnMin= 0.899784494291339     IErMin= 1 ErrMin= 8.16D-02
 ErrMax= 8.16D-02  0.00D+00 EMaxC= 1.00D-01 BMatC= 3.76D-01 BMatP= 3.76D-01
 IDIUse=3 WtCom= 1.84D-01 WtEn= 8.16D-01
 Coeff-Com:  0.100D+01
 Coeff-En:   0.100D+01
 Coeff:      0.100D+01
 GapD=    2.000 DampG=2.000 DampE=0.500 DampFc=1.0000 IDamp=-1.
 RMSDP=2.94D-02 MaxDP=8.47D-01              OVMax= 0.00D+00

 Cycle   2  Pass 1  IDiag  1:
 E=  2.72959100341268     Delta-E=        1.829806509121 Rises=F Damp=F
 DIIS: error= 7.91D-02 at cycle   2 NSaved=   2.
 NSaved= 2 IEnMin= 1 EnMin= 0.899784494291339     IErMin= 2 ErrMin= 7.91D-02
 ErrMax= 7.91D-02  0.00D+00 EMaxC= 1.00D-01 BMatC= 3.60D-01 BMatP= 3.76D-01
 IDIUse=3 WtCom= 2.09D-01 WtEn= 7.91D-01
 Coeff-Com:  0.488D+00 0.512D+00
 Coeff-En:   0.761D+00 0.239D+00
 Coeff:      0.704D+00 0.296D+00
 RMSDP=2.86D-02 MaxDP=8.17D-01 DE= 1.83D+00 OVMax= 0.00D+00

 Cycle   3  Pass 1  IDiag  1:
 E= 0.792579036487609     Delta-E=       -1.937011966925 Rises=F Damp=F
 DIIS: error= 5.75D-02 at cycle   3 NSaved=   3.
 NSaved= 3 IEnMin= 3 EnMin= 0.792579036487609     IErMin= 3 ErrMin= 5.75D-02
 ErrMax= 5.75D-02  0.00D+00 EMaxC= 1.00D-01 BMatC= 2.67D-01 BMatP= 3.60D-01
 IDIUse=3 WtCom= 4.25D-01 WtEn= 5.75D-01
 Coeff-Com:  0.227D+00 0.341D+00 0.432D+00
 Coeff-En:   0.000D+00 0.363D+00 0.637D+00
 Coeff:      0.962D-01 0.354D+00 0.550D+00
 RMSDP=1.85D-02 MaxDP=5.12D-01 DE=-1.94D+00 OVMax= 0.00D+00

 Cycle   4  Pass 1  IDiag  1:
 E=-0.818316967632882     Delta-E=       -1.610896004120 Rises=F Damp=F
 DIIS: error= 2.51D-02 at cycle   4 NSaved=   4.
 NSaved= 4 IEnMin= 4 EnMin=-0.818316967632882     IErMin= 4 ErrMin= 2.51D-02
 ErrMax= 2.51D-02  0.00D+00 EMaxC= 1.00D-01 BMatC= 5.69D-02 BMatP= 2.67D-01
 IDIUse=3 WtCom= 7.49D-01 WtEn= 2.51D-01
 Coeff-Com: -0.153D+00 0.171D+00 0.156D+00 0.827D+00
 Coeff-En:   0.000D+00 0.158D-01 0.000D+00 0.984D+00
 Coeff:     -0.115D+00 0.132D+00 0.117D+00 0.866D+00
 RMSDP=7.59D-03 MaxDP=9.47D-02 DE=-1.61D+00 OVMax= 0.00D+00

 Cycle   5  Pass 1  IDiag  1:
 E= -1.07012384546533     Delta-E=       -0.251806877832 Rises=F Damp=F
 DIIS: error= 6.90D-03 at cycle   5 NSaved=   5.
 NSaved= 5 IEnMin= 5 EnMin= -1.07012384546533     IErMin= 5 ErrMin= 6.90D-03
 ErrMax= 6.90D-03  0.00D+00 EMaxC= 1.00D-01 BMatC= 6.61D-03 BMatP= 5.69D-02
 IDIUse=3 WtCom= 9.31D-01 WtEn= 6.90D-02
 Coeff-Com: -0.152D-01 0.324D-01-0.526D-01-0.580D-01 0.109D+01
 Coeff-En:   0.000D+00 0.000D+00 0.000D+00 0.000D+00 0.100D+01
 Coeff:     -0.141D-01 0.301D-01-0.489D-01-0.540D-01 0.109D+01
 RMSDP=3.13D-03 MaxDP=4.27D-02 DE=-2.52D-01 OVMax= 0.00D+00

 Cycle   6  Pass 1  IDiag  3:
 E= -1.11084449694022     Delta-E=       -0.040720651475 Rises=F Damp=F
 DIIS: error= 2.89D-03 at cycle   6 NSaved=   6.
 NSaved= 6 IEnMin= 6 EnMin= -1.11084449694022     IErMin= 6 ErrMin= 2.89D-03
 ErrMax= 2.89D-03  0.00D+00 EMaxC= 1.00D-01 BMatC= 1.52D-03 BMatP= 6.61D-03
 IDIUse=3 WtCom= 9.71D-01 WtEn= 2.89D-02
 Coeff-Com: -0.426D-02 0.144D-01-0.115D-01 0.776D-02-0.276D+00 0.127D+01
 Coeff-En:   0.000D+00 0.000D+00 0.000D+00 0.000D+00 0.000D+00 0.100D+01
 Coeff:     -0.414D-02 0.140D-01-0.111D-01 0.753D-02-0.268D+00 0.126D+01
 Gap=     0.136 Goal=   None    Shift=    0.000
 RMSDP=1.98D-03 MaxDP=2.10D-02 DE=-4.07D-02 OVMax= 5.98D-02

 Cycle   7  Pass 1  IDiag  3:
 E= -1.12432405343816     Delta-E=       -0.013479556498 Rises=F Damp=F
 DIIS: error= 1.54D-03 at cycle   7 NSaved=   7.
 NSaved= 7 IEnMin= 7 EnMin= -1.12432405343816     IErMin= 7 ErrMin= 1.54D-03
 ErrMax= 1.54D-03  0.00D+00 EMaxC= 1.00D-01 BMatC= 5.18D-04 BMatP= 1.52D-03
 IDIUse=3 WtCom= 9.85D-01 WtEn= 1.54D-02
 Coeff-Com:  0.257D-02 0.326D-02-0.164D-02 0.266D-01-0.127D+00-0.350D+00
 Coeff-Com:  0.145D+01
 Coeff-En:   0.000D+00 0.000D+00 0.000D+00 0.000D+00 0.000D+00 0.000D+00
 Coeff-En:   0.100D+01
 Coeff:      0.254D-02 0.321D-02-0.162D-02 0.262D-01-0.125D+00-0.344D+00
 Coeff:      0.144D+01
 Gap=     0.142 Goal=   None    Shift=    0.000
 RMSDP=1.78D-03 MaxDP=2.57D-02 DE=-1.35D-02 OVMax= 6.32D-02

 Cycle   8  Pass 1  IDiag  3:
 E= -1.13156515730304     Delta-E=       -0.007241103865 Rises=F Damp=F
 DIIS: error= 1.41D-03 at cycle   8 NSaved=   8.
 NSaved= 8 IEnMin= 8 EnMin= -1.13156515730304     IErMin= 8 ErrMin= 1.41D-03
 ErrMax= 1.41D-03  0.00D+00 EMaxC= 1.00D-01 BMatC= 1.80D-04 BMatP= 5.18D-04
 IDIUse=3 WtCom= 9.86D-01 WtEn= 1.41D-02
 Coeff-Com: -0.244D-02 0.644D-03 0.758D-03 0.965D-02 0.676D-01-0.173D+00
 Coeff-Com: -0.366D+00 0.146D+01
 Coeff-En:   0.000D+00 0.000D+00 0.000D+00 0.000D+00 0.000D+00 0.000D+00
 Coeff-En:   0.000D+00 0.100D+01
 Coeff:     -0.241D-02 0.635D-03 0.747D-03 0.951D-02 0.667D-01-0.170D+00
 Coeff:     -0.360D+00 0.146D+01
 Gap=     0.146 Goal=   None    Shift=    0.000
 RMSDP=1.40D-03 MaxDP=2.44D-02 DE=-7.24D-03 OVMax= 5.80D-02

 Cycle   9  Pass 1  IDiag  3:
 E= -1.13526058568846     Delta-E=       -0.003695428385 Rises=F Damp=F
 DIIS: error= 1.25D-03 at cycle   9 NSaved=   9.
 NSaved= 9 IEnMin= 9 EnMin= -1.13526058568846     IErMin= 9 ErrMin= 1.25D-03
 ErrMax= 1.25D-03  0.00D+00 EMaxC= 1.00D-01 BMatC= 8.78D-05 BMatP= 1.80D-04
 IDIUse=3 WtCom= 9.88D-01 WtEn= 1.25D-02
 Coeff-Com:  0.626D-03-0.132D-02 0.422D-03-0.532D-02-0.250D-02 0.211D+00
 Coeff-Com: -0.357D+00-0.628D+00 0.178D+01
 Coeff-En:   0.000D+00 0.000D+00 0.000D+00 0.000D+00 0.000D+00 0.000D+00
 Coeff-En:   0.000D+00 0.000D+00 0.100D+01
 Coeff:      0.618D-03-0.130D-02 0.417D-03-0.525D-02-0.247D-02 0.209D+00
 Coeff:     -0.352D+00-0.620D+00 0.177D+01
 Gap=     0.148 Goal=   None    Shift=    0.000
 RMSDP=1.43D-03 MaxDP=2.62D-02 DE=-3.70D-03 OVMax= 6.28D-02

 Cycle  10  Pass 1  IDiag  3:
 E= -1.13785662962005     Delta-E=       -0.002596043932 Rises=F Damp=F
 DIIS: error= 9.46D-04 at cycle  10 NSaved=  10.
 NSaved=10 IEnMin=10 EnMin= -1.13785662962005     IErMin=10 ErrMin= 9.46D-04
 ErrMax= 9.46D-04  0.00D+00 EMaxC= 1.00D-01 BMatC= 4.57D-05 BMatP= 8.78D-05
 IDIUse=3 WtCom= 9.91D-01 WtEn= 9.46D-03
 Coeff-Com:  0.466D-03-0.163D-02 0.426D-03 0.192D-02-0.708D-02-0.316D-01
 Coeff-Com:  0.185D+00-0.196D+00-0.576D+00 0.162D+01
 Coeff-En:   0.000D+00 0.000D+00 0.000D+00 0.000D+00 0.000D+00 0.000D+00
 Coeff-En:   0.000D+00 0.000D+00 0.000D+00 0.100D+01
 Coeff:      0.462D-03-0.162D-02 0.422D-03 0.190D-02-0.701D-02-0.313D-01
 Coeff:      0.183D+00-0.194D+00-0.571D+00 0.162D+01
 Gap=     0.149 Goal=   None    Shift=    0.000
 RMSDP=1.06D-03 MaxDP=1.83D-02 DE=-2.60D-03 OVMax= 4.79D-02

 Cycle  11  Pass 1  IDiag  3:
 E= -1.13919952248557     Delta-E=       -0.001342892866 Rises=F Damp=F
 DIIS: error= 6.61D-04 at cycle  11 NSaved=  11.
 NSaved=11 IEnMin=11 EnMin= -1.13919952248557     IErMin=11 ErrMin= 6.61D-04
 ErrMax= 6.61D-04  0.00D+00 EMaxC= 1.00D-01 BMatC= 2.48D-05 BMatP= 4.57D-05
 IDIUse=3 WtCom= 9.93D-01 WtEn= 6.61D-03
 Coeff-Com: -0.584D-03-0.100D-02 0.716D-03 0.276D-02 0.548D-02-0.606D-01
 Coeff-Com:  0.948D-01 0.164D+00-0.449D+00-0.502D+00 0.175D+01
 Coeff-En:   0.000D+00 0.000D+00 0.000D+00 0.000D+00 0.000D+00 0.000D+00
 Coeff-En:   0.000D+00 0.000D+00 0.000D+00 0.000D+00 0.100D+01
 Coeff:     -0.580D-03-0.997D-03 0.711D-03 0.274D-02 0.544D-02-0.602D-01
 Coeff:      0.942D-01 0.163D+00-0.446D+00-0.499D+00 0.174D+01
 Gap=     0.150 Goal=   None    Shift=    0.000
 RMSDP=1.02D-03 MaxDP=1.79D-02 DE=-1.34D-03 OVMax= 4.64D-02

 Cycle  12  Pass 1  IDiag  3:
 E= -1.14005155444943     Delta-E=       -0.000852031964 Rises=F Damp=F
 DIIS: error= 5.19D-04 at cycle  12 NSaved=  12.
 NSaved=12 IEnMin=12 EnMin= -1.14005155444943     IErMin=12 ErrMin= 5.19D-04
 ErrMax= 5.19D-04  0.00D+00 EMaxC= 1.00D-01 BMatC= 1.33D-05 BMatP= 2.48D-05
 IDIUse=3 WtCom= 9.95D-01 WtEn= 5.19D-03
 Coeff-Com:  0.221D-03-0.722D-03 0.292D-03-0.113D-02 0.469D-02-0.733D-02
 Coeff-Com:  0.116D-02 0.338D-01 0.575D-01-0.333D+00-0.145D+00 0.139D+01
 Coeff-En:   0.000D+00 0.000D+00 0.000D+00 0.000D+00 0.000D+00 0.000D+00
 Coeff-En:   0.000D+00 0.000D+00 0.000D+00 0.000D+00 0.000D+00 0.100D+01
 Coeff:      0.220D-03-0.718D-03 0.290D-03-0.112D-02 0.467D-02-0.729D-02
 Coeff:      0.115D-02 0.336D-01 0.572D-01-0.331D+00-0.144D+00 0.139D+01
 Gap=     0.150 Goal=   None    Shift=    0.000
 RMSDP=6.04D-04 MaxDP=1.08D-02 DE=-8.52D-04 OVMax= 2.76D-02

 Cycle  13  Pass 1  IDiag  3:
 E= -1.14039223203099     Delta-E=       -0.000340677582 Rises=F Damp=F
 DIIS: error= 3.92D-04 at cycle  13 NSaved=  13.
 NSaved=13 IEnMin=13 EnMin= -1.14039223203099     IErMin=13 ErrMin= 3.92D-04
 ErrMax= 3.92D-04  0.00D+00 EMaxC= 1.00D-01 BMatC= 6.19D-06 BMatP= 1.33D-05
 IDIUse=3 WtCom= 9.96D-01 WtEn= 3.92D-03
 Coeff-Com: -0.534D-04-0.156D-03 0.194D-03-0.139D-03 0.615D-03 0.184D-02
 Coeff-Com: -0.110D-01 0.157D-02 0.615D-01-0.317D-02-0.277D+00-0.281D+00
 Coeff-Com:  0.151D+01
 Coeff-En:   0.000D+00 0.000D+00 0.000D+00 0.000D+00 0.000D+00 0.000D+00
 Coeff-En:   0.000D+00 0.000D+00 0.000D+00 0.000D+00 0.000D+00 0.000D+00
 Coeff-En:   0.100D+01
 Coeff:     -0.532D-04-0.155D-03 0.193D-03-0.139D-03 0.612D-03 0.183D-02
 Coeff:     -0.110D-01 0.156D-02 0.612D-01-0.316D-02-0.276D+00-0.280D+00
 Coeff:      0.150D+01
 Gap=     0.150 Goal=   None    Shift=    0.000
 RMSDP=4.84D-04 MaxDP=8.16D-03 DE=-3.41D-04 OVMax= 2.21D-02

 Cycle  14  Pass 1  IDiag  3:
 E= -1.14057004577160     Delta-E=       -0.000177813741 Rises=F Damp=F
 DIIS: error= 2.79D-04 at cycle  14 NSaved=  14.
 NSaved=14 IEnMin=14 EnMin= -1.14057004577160     IErMin=14 ErrMin= 2.79D-04
 ErrMax= 2.79D-04  0.00D+00 EMaxC= 1.00D-01 BMatC= 3.09D-06 BMatP= 6.19D-06
 IDIUse=3 WtCom= 9.97D-01 WtEn= 2.79D-03
 Coeff-Com:  0.140D-03-0.963D-04-0.572D-04-0.203D-03-0.138D-02 0.674D-02
 Coeff-Com: -0.869D-02-0.238D-01 0.603D-01-0.208D-02 0.493D-01-0.307D+00
 Coeff-Com: -0.323D+00 0.155D+01
 Coeff-En:   0.000D+00 0.000D+00 0.000D+00 0.000D+00 0.000D+00 0.000D+00
 Coeff-En:   0.000D+00 0.000D+00 0.000D+00 0.000D+00 0.000D+00 0.000D+00
 Coeff-En:   0.000D+00 0.100D+01
 Coeff:      0.139D-03-0.960D-04-0.571D-04-0.203D-03-0.138D-02 0.673D-02
 Coeff:     -0.866D-02-0.237D-01 0.601D-01-0.207D-02 0.491D-01-0.306D+00
 Coeff:     -0.322D+00 0.155D+01
 Gap=     0.150 Goal=   None    Shift=    0.000
 RMSDP=3.21D-04 MaxDP=6.37D-03 DE=-1.78D-04 OVMax= 1.43D-02

 Cycle  15  Pass 1  IDiag  3:
 E= -1.14065027061065     Delta-E=       -0.000080224839 Rises=F Damp=F
 DIIS: error= 1.81D-04 at cycle  15 NSaved=  15.
 NSaved=15 IEnMin=15 EnMin= -1.14065027061065     IErMin=15 ErrMin= 1.81D-04
 ErrMax= 1.81D-04  0.00D+00 EMaxC= 1.00D-01 BMatC= 1.32D-06 BMatP= 3.09D-06
 IDIUse=3 WtCom= 9.98D-01 WtEn= 1.81D-03
 Coeff-Com: -0.626D-04 0.550D-05 0.593D-06 0.316D-03-0.703D-03 0.573D-02
 Coeff-Com: -0.134D-01 0.865D-03 0.171D-01 0.627D-02 0.273D-01-0.374D-01
 Coeff-Com: -0.204D+00-0.288D+00 0.149D+01
 Coeff-En:   0.000D+00 0.000D+00 0.000D+00 0.000D+00 0.000D+00 0.000D+00
 Coeff-En:   0.000D+00 0.000D+00 0.000D+00 0.000D+00 0.000D+00 0.000D+00
 Coeff-En:   0.000D+00 0.000D+00 0.100D+01
 Coeff:     -0.625D-04 0.549D-05 0.592D-06 0.316D-03-0.701D-03 0.572D-02
 Coeff:     -0.134D-01 0.863D-03 0.170D-01 0.626D-02 0.273D-01-0.373D-01
 Coeff:     -0.204D+00-0.288D+00 0.149D+01
 Gap=     0.150 Goal=   None    Shift=    0.000
 RMSDP=2.16D-04 MaxDP=4.70D-03 DE=-8.02D-05 OVMax= 9.17D-03

 Cycle  16  Pass 1  IDiag  3:
 E= -1.14068492290005     Delta-E=       -0.000034652289 Rises=F Damp=F
 DIIS: error= 1.10D-04 at cycle  16 NSaved=  16.
 NSaved=16 IEnMin=16 EnMin= -1.14068492290005     IErMin=16 ErrMin= 1.10D-04
 ErrMax= 1.10D-04  0.00D+00 EMaxC= 1.00D-01 BMatC= 5.57D-07 BMatP= 1.32D-06
 IDIUse=3 WtCom= 9.99D-01 WtEn= 1.10D-03
 Coeff-Com:  0.387D-04-0.348D-04-0.271D-04-0.286D-04-0.131D-03 0.118D-02
 Coeff-Com: -0.188D-02-0.456D-02 0.100D-01-0.723D-02 0.251D-01-0.129D-01
 Coeff-Com:  0.247D-01-0.210D+00-0.312D+00 0.149D+01
 Coeff-En:   0.000D+00 0.000D+00 0.000D+00 0.000D+00 0.000D+00 0.000D+00
 Coeff-En:   0.000D+00 0.000D+00 0.000D+00 0.000D+00 0.000D+00 0.000D+00
 Coeff-En:   0.000D+00 0.000D+00 0.000D+00 0.100D+01
 Coeff:      0.387D-04-0.348D-04-0.271D-04-0.286D-04-0.131D-03 0.118D-02
 Coeff:     -0.188D-02-0.456D-02 0.100D-01-0.722D-02 0.251D-01-0.129D-01
 Coeff:      0.246D-01-0.210D+00-0.311D+00 0.149D+01
 Gap=     0.150 Goal=   None    Shift=    0.000
 RMSDP=1.37D-04 MaxDP=3.17D-03 DE=-3.47D-05 OVMax= 5.36D-03

 Cycle  17  Pass 1  IDiag  3:
 E= -1.14069877996940     Delta-E=       -0.000013857069 Rises=F Damp=F
 DIIS: error= 5.93D-05 at cycle  17 NSaved=  17.
 NSaved=17 IEnMin=17 EnMin= -1.14069877996940     IErMin=17 ErrMin= 5.93D-05
 ErrMax= 5.93D-05  0.00D+00 EMaxC= 1.00D-01 BMatC= 2.17D-07 BMatP= 5.57D-07
 IDIUse=1 WtCom= 1.00D+00 WtEn= 0.00D+00
 Coeff-Com: -0.348D-04-0.582D-04-0.284D-04 0.179D-03 0.114D-03-0.351D-03
 Coeff-Com:  0.970D-03-0.273D-04-0.109D-02-0.301D-02 0.477D-02 0.555D-02
 Coeff-Com:  0.181D-01 0.143D-02-0.158D+00-0.345D+00 0.148D+01
 Coeff:     -0.348D-04-0.582D-04-0.284D-04 0.179D-03 0.114D-03-0.351D-03
 Coeff:      0.970D-03-0.273D-04-0.109D-02-0.301D-02 0.477D-02 0.555D-02
 Coeff:      0.181D-01 0.143D-02-0.158D+00-0.345D+00 0.148D+01
 Gap=     0.150 Goal=   None    Shift=    0.000
 RMSDP=7.95D-05 MaxDP=1.86D-03 DE=-1.39D-05 OVMax= 2.72D-03

 Cycle  18  Pass 1  IDiag  3:
 E= -1.14070378166980     Delta-E=       -0.000005001700 Rises=F Damp=F
 DIIS: error= 3.13D-05 at cycle  18 NSaved=  18.
 NSaved=18 IEnMin=18 EnMin= -1.14070378166980     IErMin=18 ErrMin= 3.13D-05
 ErrMax= 3.13D-05  0.00D+00 EMaxC= 1.00D-01 BMatC= 8.56D-08 BMatP= 2.17D-07
 IDIUse=1 WtCom= 1.00D+00 WtEn= 0.00D+00
 Coeff-Com: -0.678D-06-0.481D-04 0.965D-05 0.595D-04 0.396D-03 0.914D-04
 Coeff-Com: -0.158D-02 0.587D-03 0.155D-02-0.285D-02 0.768D-03-0.232D-02
 Coeff-Com:  0.799D-02 0.119D-01 0.374D-01-0.157D+00-0.430D+00 0.153D+01
 Coeff:     -0.678D-06-0.481D-04 0.965D-05 0.595D-04 0.396D-03 0.914D-04
 Coeff:     -0.158D-02 0.587D-03 0.155D-02-0.285D-02 0.768D-03-0.232D-02
 Coeff:      0.799D-02 0.119D-01 0.374D-01-0.157D+00-0.430D+00 0.153D+01
 Gap=     0.150 Goal=   None    Shift=    0.000
 RMSDP=4.64D-05 MaxDP=1.02D-03 DE=-5.00D-06 OVMax= 1.29D-03

 Cycle  19  Pass 1  IDiag  3:
 E= -1.14070566954217     Delta-E=       -0.000001887872 Rises=F Damp=F
 DIIS: error= 2.54D-05 at cycle  19 NSaved=  19.
 NSaved=19 IEnMin=19 EnMin= -1.14070566954217     IErMin=19 ErrMin= 2.54D-05
 ErrMax= 2.54D-05  0.00D+00 EMaxC= 1.00D-01 BMatC= 3.71D-08 BMatP= 8.56D-08
 IDIUse=1 WtCom= 1.00D+00 WtEn= 0.00D+00
 Coeff-Com:  0.150D-05-0.342D-04 0.178D-04 0.592D-05 0.182D-03-0.260D-03
 Coeff-Com: -0.414D-03 0.120D-02-0.254D-04-0.691D-03 0.599D-03-0.575D-02
 Coeff-Com:  0.481D-02 0.410D-02 0.126D-01 0.497D-01-0.906D-01-0.646D+00
 Coeff-Com:  0.167D+01
 Coeff:      0.150D-05-0.342D-04 0.178D-04 0.592D-05 0.182D-03-0.260D-03
 Coeff:     -0.414D-03 0.120D-02-0.254D-04-0.691D-03 0.599D-03-0.575D-02
 Coeff:      0.481D-02 0.410D-02 0.126D-01 0.497D-01-0.906D-01-0.646D+00
 Coeff:      0.167D+01
 Gap=     0.150 Goal=   None    Shift=    0.000
 RMSDP=2.71D-05 MaxDP=4.51D-04 DE=-1.89D-06 OVMax= 8.32D-04

 Cycle  20  Pass 1  IDiag  3:
 E= -1.14070649416328     Delta-E=       -0.000000824621 Rises=F Damp=F
 DIIS: error= 2.15D-05 at cycle  20 NSaved=  20.
 NSaved=20 IEnMin=20 EnMin= -1.14070649416328     IErMin=20 ErrMin= 2.15D-05
 ErrMax= 2.15D-05  0.00D+00 EMaxC= 1.00D-01 BMatC= 1.81D-08 BMatP= 3.71D-08
 IDIUse=1 WtCom= 1.00D+00 WtEn= 0.00D+00
 Coeff-Com: -0.104D-04-0.155D-04 0.147D-04 0.458D-04-0.120D-03 0.430D-03
 Coeff-Com: -0.647D-03-0.372D-04 0.103D-02 0.491D-04-0.669D-03-0.179D-02
 Coeff-Com: -0.387D-02 0.304D-02 0.801D-02-0.557D-03 0.523D-01-0.200D-01
 Coeff-Com: -0.816D+00 0.178D+01
 Coeff:     -0.104D-04-0.155D-04 0.147D-04 0.458D-04-0.120D-03 0.430D-03
 Coeff:     -0.647D-03-0.372D-04 0.103D-02 0.491D-04-0.669D-03-0.179D-02
 Coeff:     -0.387D-02 0.304D-02 0.801D-02-0.557D-03 0.523D-01-0.200D-01
 Coeff:     -0.816D+00 0.178D+01
 Gap=     0.150 Goal=   None    Shift=    0.000
 RMSDP=1.90D-05 MaxDP=3.11D-04 DE=-8.25D-07 OVMax= 6.37D-04

 Cycle  21  Pass 1  IDiag  3:
 E= -1.14070691730626     Delta-E=       -0.000000423143 Rises=F Damp=F
 DIIS: error= 1.67D-05 at cycle  21 NSaved=  20.
 NSaved=20 IEnMin=20 EnMin= -1.14070691730626     IErMin=20 ErrMin= 1.67D-05
 ErrMax= 1.67D-05  0.00D+00 EMaxC= 1.00D-01 BMatC= 9.11D-09 BMatP= 1.81D-08
 IDIUse=1 WtCom= 1.00D+00 WtEn= 0.00D+00
 Coeff-Com: -0.274D-05 0.724D-05 0.367D-04-0.513D-04 0.471D-04-0.340D-04
 Coeff-Com: -0.379D-03 0.985D-03-0.158D-02 0.248D-02-0.181D-02-0.228D-03
 Coeff-Com: -0.178D-02-0.729D-03 0.118D-03 0.183D-01 0.618D-01-0.311D-01
 Coeff-Com: -0.860D+00 0.181D+01
 Coeff:     -0.274D-05 0.724D-05 0.367D-04-0.513D-04 0.471D-04-0.340D-04
 Coeff:     -0.379D-03 0.985D-03-0.158D-02 0.248D-02-0.181D-02-0.228D-03
 Coeff:     -0.178D-02-0.729D-03 0.118D-03 0.183D-01 0.618D-01-0.311D-01
 Coeff:     -0.860D+00 0.181D+01
 Gap=     0.150 Goal=   None    Shift=    0.000
 RMSDP=1.38D-05 MaxDP=2.66D-04 DE=-4.23D-07 OVMax= 4.88D-04

 Cycle  22  Pass 1  IDiag  3:
 E= -1.14070714497632     Delta-E=       -0.000000227670 Rises=F Damp=F
 DIIS: error= 1.22D-05 at cycle  22 NSaved=  20.
 NSaved=20 IEnMin=20 EnMin= -1.14070714497632     IErMin=20 ErrMin= 1.22D-05
 ErrMax= 1.22D-05  0.00D+00 EMaxC= 1.00D-01 BMatC= 4.67D-09 BMatP= 9.11D-09
 IDIUse=1 WtCom= 1.00D+00 WtEn= 0.00D+00
 Coeff-Com: -0.117D-06 0.202D-04-0.106D-03 0.115D-03-0.127D-03-0.436D-04
 Coeff-Com: -0.403D-03 0.134D-02-0.142D-03-0.163D-02 0.129D-02-0.265D-03
 Coeff-Com:  0.345D-03-0.770D-03-0.138D-01 0.110D-01 0.147D+00-0.212D+00
 Coeff-Com: -0.732D+00 0.180D+01
 Coeff:     -0.117D-06 0.202D-04-0.106D-03 0.115D-03-0.127D-03-0.436D-04
 Coeff:     -0.403D-03 0.134D-02-0.142D-03-0.163D-02 0.129D-02-0.265D-03
 Coeff:      0.345D-03-0.770D-03-0.138D-01 0.110D-01 0.147D+00-0.212D+00
 Coeff:     -0.732D+00 0.180D+01
 Gap=     0.150 Goal=   None    Shift=    0.000
 RMSDP=1.10D-05 MaxDP=2.30D-04 DE=-2.28D-07 OVMax= 4.10D-04

 Cycle  23  Pass 1  IDiag  3:
 E= -1.14070727246644     Delta-E=       -0.000000127490 Rises=F Damp=F
 DIIS: error= 8.46D-06 at cycle  23 NSaved=  20.
 NSaved=20 IEnMin=20 EnMin= -1.14070727246644     IErMin=20 ErrMin= 8.46D-06
 ErrMax= 8.46D-06  0.00D+00 EMaxC= 1.00D-01 BMatC= 2.45D-09 BMatP= 4.67D-09
 IDIUse=1 WtCom= 1.00D+00 WtEn= 0.00D+00
 Coeff-Com:  0.507D-05-0.499D-05 0.156D-03-0.337D-03-0.741D-04 0.928D-03
 Coeff-Com: -0.912D-03 0.461D-03-0.112D-02-0.244D-04 0.296D-02-0.113D-03
 Coeff-Com: -0.568D-02-0.785D-02 0.171D-01 0.146D-01 0.548D-01-0.150D+00
 Coeff-Com: -0.605D+00 0.168D+01
 Coeff:      0.507D-05-0.499D-05 0.156D-03-0.337D-03-0.741D-04 0.928D-03
 Coeff:     -0.912D-03 0.461D-03-0.112D-02-0.244D-04 0.296D-02-0.113D-03
 Coeff:     -0.568D-02-0.785D-02 0.171D-01 0.146D-01 0.548D-01-0.150D+00
 Coeff:     -0.605D+00 0.168D+01
 Gap=     0.150 Goal=   None    Shift=    0.000
 RMSDP=7.83D-06 MaxDP=1.72D-04 DE=-1.27D-07 OVMax= 3.06D-04

 Cycle  24  Pass 1  IDiag  3:
 E= -1.14070733664380     Delta-E=       -0.000000064177 Rises=F Damp=F
 DIIS: error= 5.61D-06 at cycle  24 NSaved=  20.
 NSaved=20 IEnMin=20 EnMin= -1.14070733664380     IErMin=20 ErrMin= 5.61D-06
 ErrMax= 5.61D-06  0.00D+00 EMaxC= 1.00D-01 BMatC= 1.30D-09 BMatP= 2.45D-09
 IDIUse=1 WtCom= 1.00D+00 WtEn= 0.00D+00
 Coeff-Com: -0.139D-04 0.110D-03-0.192D-03 0.779D-04 0.132D-03 0.206D-03
 Coeff-Com: -0.628D-03 0.585D-05 0.277D-03-0.822D-03 0.314D-03 0.391D-02
 Coeff-Com: -0.640D-02-0.130D-01 0.255D-01 0.213D-01 0.506D-01-0.254D+00
 Coeff-Com: -0.474D+00 0.165D+01
 Coeff:     -0.139D-04 0.110D-03-0.192D-03 0.779D-04 0.132D-03 0.206D-03
 Coeff:     -0.628D-03 0.585D-05 0.277D-03-0.822D-03 0.314D-03 0.391D-02
 Coeff:     -0.640D-02-0.130D-01 0.255D-01 0.213D-01 0.506D-01-0.254D+00
 Coeff:     -0.474D+00 0.165D+01
 Gap=     0.150 Goal=   None    Shift=    0.000
 RMSDP=5.95D-06 MaxDP=1.34D-04 DE=-6.42D-08 OVMax= 2.44D-04

 Cycle  25  Pass 1  IDiag  3:
 E= -1.14070737090435     Delta-E=       -0.000000034261 Rises=F Damp=F
 DIIS: error= 3.53D-06 at cycle  25 NSaved=  20.
 NSaved=20 IEnMin=20 EnMin= -1.14070737090435     IErMin=20 ErrMin= 3.53D-06
 ErrMax= 3.53D-06  0.00D+00 EMaxC= 1.00D-01 BMatC= 6.75D-10 BMatP= 1.30D-09
 IDIUse=1 WtCom= 1.00D+00 WtEn= 0.00D+00
 Coeff-Com:  0.144D-04-0.600D-04 0.241D-03-0.279D-03 0.170D-03-0.480D-04
 Coeff-Com: -0.425D-03-0.180D-03 0.538D-03 0.113D-02 0.150D-03-0.312D-02
 Coeff-Com: -0.117D-02-0.390D-02 0.850D-02 0.279D-01 0.729D-01-0.328D+00
 Coeff-Com: -0.437D+00 0.166D+01
 Coeff:      0.144D-04-0.600D-04 0.241D-03-0.279D-03 0.170D-03-0.480D-04
 Coeff:     -0.425D-03-0.180D-03 0.538D-03 0.113D-02 0.150D-03-0.312D-02
 Coeff:     -0.117D-02-0.390D-02 0.850D-02 0.279D-01 0.729D-01-0.328D+00
 Coeff:     -0.437D+00 0.166D+01
 Gap=     0.150 Goal=   None    Shift=    0.000
 RMSDP=4.58D-06 MaxDP=1.00D-04 DE=-3.43D-08 OVMax= 1.88D-04

 Cycle  26  Pass 1  IDiag  3:
 E= -1.14070738876751     Delta-E=       -0.000000017863 Rises=F Damp=F
 DIIS: error= 2.01D-06 at cycle  26 NSaved=  20.
 NSaved=20 IEnMin=20 EnMin= -1.14070738876751     IErMin=20 ErrMin= 2.01D-06
 ErrMax= 2.01D-06  0.00D+00 EMaxC= 1.00D-01 BMatC= 3.17D-10 BMatP= 6.75D-10
 IDIUse=1 WtCom= 1.00D+00 WtEn= 0.00D+00
 Coeff-Com: -0.606D-04 0.569D-04 0.190D-03-0.135D-03-0.198D-03-0.117D-03
 Coeff-Com:  0.293D-03 0.152D-03 0.570D-03-0.106D-03-0.103D-02-0.101D-02
 Coeff-Com: -0.235D-02-0.120D-01 0.446D-01 0.459D-03 0.501D-01-0.292D+00
 Coeff-Com: -0.406D+00 0.162D+01
 Coeff:     -0.606D-04 0.569D-04 0.190D-03-0.135D-03-0.198D-03-0.117D-03
 Coeff:      0.293D-03 0.152D-03 0.570D-03-0.106D-03-0.103D-02-0.101D-02
 Coeff:     -0.235D-02-0.120D-01 0.446D-01 0.459D-03 0.501D-01-0.292D+00
 Coeff:     -0.406D+00 0.162D+01
 Gap=     0.150 Goal=   None    Shift=    0.000
 RMSDP=3.23D-06 MaxDP=6.53D-05 DE=-1.79D-08 OVMax= 1.27D-04

 Cycle  27  Pass 1  IDiag  3:
 E= -1.14070739667295     Delta-E=       -0.000000007905 Rises=F Damp=F
 DIIS: error= 1.14D-06 at cycle  27 NSaved=  20.
 NSaved=20 IEnMin=20 EnMin= -1.14070739667295     IErMin=20 ErrMin= 1.14D-06
 ErrMax= 1.14D-06  0.00D+00 EMaxC= 1.00D-01 BMatC= 1.21D-10 BMatP= 3.17D-10
 IDIUse=1 WtCom= 1.00D+00 WtEn= 0.00D+00
 Coeff-Com:  0.602D-04-0.403D-04-0.249D-04-0.713D-04-0.268D-04 0.326D-03
 Coeff-Com:  0.103D-03-0.363D-03 0.257D-03-0.894D-03 0.254D-03 0.895D-02
 Coeff-Com: -0.215D-01 0.186D-02 0.317D-01 0.151D-01 0.259D-01-0.240D+00
 Coeff-Com: -0.352D+00 0.153D+01
 Coeff:      0.602D-04-0.403D-04-0.249D-04-0.713D-04-0.268D-04 0.326D-03
 Coeff:      0.103D-03-0.363D-03 0.257D-03-0.894D-03 0.254D-03 0.895D-02
 Coeff:     -0.215D-01 0.186D-02 0.317D-01 0.151D-01 0.259D-01-0.240D+00
 Coeff:     -0.352D+00 0.153D+01
 Gap=     0.150 Goal=   None    Shift=    0.000
 RMSDP=1.95D-06 MaxDP=3.54D-05 DE=-7.91D-09 OVMax= 6.79D-05

 Cycle  28  Pass 1  IDiag  3:
 E= -1.14070739936460     Delta-E=       -0.000000002692 Rises=F Damp=F
 DIIS: error= 7.02D-07 at cycle  28 NSaved=  20.
 NSaved=20 IEnMin=20 EnMin= -1.14070739936460     IErMin=20 ErrMin= 7.02D-07
 ErrMax= 7.02D-07  0.00D+00 EMaxC= 1.00D-01 BMatC= 3.49D-11 BMatP= 1.21D-10
 IDIUse=1 WtCom= 1.00D+00 WtEn= 0.00D+00
 Coeff-Com:  0.248D-04-0.769D-04 0.350D-04 0.302D-04-0.130D-03 0.101D-03
 Coeff-Com:  0.337D-03-0.187D-03-0.704D-03 0.173D-02-0.164D-02 0.560D-03
 Coeff-Com: -0.217D-02-0.152D-02 0.171D-01-0.166D-02 0.423D-01-0.156D+00
 Coeff-Com: -0.361D+00 0.146D+01
 Coeff:      0.248D-04-0.769D-04 0.350D-04 0.302D-04-0.130D-03 0.101D-03
 Coeff:      0.337D-03-0.187D-03-0.704D-03 0.173D-02-0.164D-02 0.560D-03
 Coeff:     -0.217D-02-0.152D-02 0.171D-01-0.166D-02 0.423D-01-0.156D+00
 Coeff:     -0.361D+00 0.146D+01
 Gap=     0.150 Goal=   None    Shift=    0.000
 RMSDP=9.25D-07 MaxDP=1.63D-05 DE=-2.69D-09 OVMax= 2.55D-05

 Cycle  29  Pass 1  IDiag  3:
 E= -1.14070740001682     Delta-E=       -0.000000000652 Rises=F Damp=F
 DIIS: error= 3.86D-07 at cycle  29 NSaved=  20.
 NSaved=20 IEnMin=20 EnMin= -1.14070740001682     IErMin=20 ErrMin= 3.86D-07
 ErrMax= 3.86D-07  0.00D+00 EMaxC= 1.00D-01 BMatC= 8.08D-12 BMatP= 3.49D-11
 IDIUse=1 WtCom= 1.00D+00 WtEn= 0.00D+00
 Coeff-Com:  0.442D-04-0.737D-04 0.662D-05-0.142D-04 0.300D-04-0.147D-03
 Coeff-Com:  0.243D-03-0.656D-04-0.549D-03 0.907D-03 0.332D-03-0.297D-02
 Coeff-Com:  0.874D-03-0.345D-02 0.126D-01-0.644D-03 0.392D-01-0.659D-01
 Coeff-Com: -0.470D+00 0.149D+01
 Coeff:      0.442D-04-0.737D-04 0.662D-05-0.142D-04 0.300D-04-0.147D-03
 Coeff:      0.243D-03-0.656D-04-0.549D-03 0.907D-03 0.332D-03-0.297D-02
 Coeff:      0.874D-03-0.345D-02 0.126D-01-0.644D-03 0.392D-01-0.659D-01
 Coeff:     -0.470D+00 0.149D+01
 Gap=     0.150 Goal=   None    Shift=    0.000
 RMSDP=3.62D-07 MaxDP=5.46D-06 DE=-6.52D-10 OVMax= 7.36D-06

 Cycle  30  Pass 1  IDiag  3:
 E= -1.14070740014927     Delta-E=       -0.000000000132 Rises=F Damp=F
 DIIS: error= 1.91D-07 at cycle  30 NSaved=  20.
 NSaved=20 IEnMin=20 EnMin= -1.14070740014927     IErMin=20 ErrMin= 1.91D-07
 ErrMax= 1.91D-07  0.00D+00 EMaxC= 1.00D-01 BMatC= 1.73D-12 BMatP= 8.08D-12
 IDIUse=1 WtCom= 1.00D+00 WtEn= 0.00D+00
 Coeff-Com: -0.104D-04 0.105D-04 0.439D-04-0.772D-04 0.201D-04-0.591D-04
 Coeff-Com:  0.177D-04 0.103D-04-0.366D-03 0.709D-03-0.254D-03-0.989D-03
 Coeff-Com: -0.513D-03 0.197D-03 0.181D-02-0.987D-03 0.339D-01 0.401D-01
 Coeff-Com: -0.691D+00 0.162D+01
 Coeff:     -0.104D-04 0.105D-04 0.439D-04-0.772D-04 0.201D-04-0.591D-04
 Coeff:      0.177D-04 0.103D-04-0.366D-03 0.709D-03-0.254D-03-0.989D-03
 Coeff:     -0.513D-03 0.197D-03 0.181D-02-0.987D-03 0.339D-01 0.401D-01
 Coeff:     -0.691D+00 0.162D+01
 Gap=     0.150 Goal=   None    Shift=    0.000
 RMSDP=1.49D-07 MaxDP=2.07D-06 DE=-1.32D-10 OVMax= 4.09D-06

 Cycle  31  Pass 1  IDiag  3:
 E= -1.14070740017303     Delta-E=       -0.000000000024 Rises=F Damp=F
 DIIS: error= 8.26D-08 at cycle  31 NSaved=  20.
 NSaved=20 IEnMin=20 EnMin= -1.14070740017303     IErMin=20 ErrMin= 8.26D-08
 ErrMax= 8.26D-08  0.00D+00 EMaxC= 1.00D-01 BMatC= 3.57D-13 BMatP= 1.73D-12
 IDIUse=1 WtCom= 1.00D+00 WtEn= 0.00D+00
 Coeff-Com: -0.371D-05-0.115D-04 0.517D-04-0.242D-04 0.675D-05-0.652D-04
 Coeff-Com: -0.999D-04 0.421D-03-0.696D-03 0.114D-02-0.136D-02 0.865D-03
 Coeff-Com: -0.977D-03-0.244D-03 0.181D-03-0.329D-02 0.202D-01 0.848D-01
 Coeff-Com: -0.640D+00 0.154D+01
 Coeff:     -0.371D-05-0.115D-04 0.517D-04-0.242D-04 0.675D-05-0.652D-04
 Coeff:     -0.999D-04 0.421D-03-0.696D-03 0.114D-02-0.136D-02 0.865D-03
 Coeff:     -0.977D-03-0.244D-03 0.181D-03-0.329D-02 0.202D-01 0.848D-01
 Coeff:     -0.640D+00 0.154D+01
 Gap=     0.150 Goal=   None    Shift=    0.000
 RMSDP=6.04D-08 MaxDP=9.80D-07 DE=-2.38D-11 OVMax= 1.87D-06

 Cycle  32  Pass 1  IDiag  3:
 E= -1.14070740017826     Delta-E=       -0.000000000005 Rises=F Damp=F
 DIIS: error= 3.88D-08 at cycle  32 NSaved=  20.
 NSaved=20 IEnMin=20 EnMin= -1.14070740017826     IErMin=20 ErrMin= 3.88D-08
 ErrMax= 3.88D-08  0.00D+00 EMaxC= 1.00D-01 BMatC= 9.14D-14 BMatP= 3.57D-13
 IDIUse=1 WtCom= 1.00D+00 WtEn= 0.00D+00
 Coeff-Com:  0.100D-04-0.213D-04 0.159D-04 0.582D-05 0.592D-05 0.202D-04
 Coeff-Com: -0.167D-03 0.445D-03-0.853D-03 0.116D-02-0.692D-03-0.162D-04
 Coeff-Com: -0.306D-03 0.345D-03-0.255D-03-0.856D-02 0.404D-01 0.370D-01
 Coeff-Com: -0.644D+00 0.158D+01
 Coeff:      0.100D-04-0.213D-04 0.159D-04 0.582D-05 0.592D-05 0.202D-04
 Coeff:     -0.167D-03 0.445D-03-0.853D-03 0.116D-02-0.692D-03-0.162D-04
 Coeff:     -0.306D-03 0.345D-03-0.255D-03-0.856D-02 0.404D-01 0.370D-01
 Coeff:     -0.644D+00 0.158D+01
 Gap=     0.150 Goal=   None    Shift=    0.000
 RMSDP=2.99D-08 MaxDP=6.58D-07 DE=-5.23D-12 OVMax= 1.07D-06

 Cycle  33  Pass 1  IDiag  3:
 E= -1.14070740018178     Delta-E=       -0.000000000004 Rises=F Damp=F
 DIIS: error= 2.53D-08 at cycle  33 NSaved=  20.
 NSaved=20 IEnMin=20 EnMin= -1.14070740018178     IErMin=20 ErrMin= 2.53D-08
 ErrMax= 2.53D-08  0.00D+00 EMaxC= 1.00D-01 BMatC= 2.88D-14 BMatP= 9.14D-14
 IDIUse=1 WtCom= 1.00D+00 WtEn= 0.00D+00
 Large coefficients: NSaved= 20 BigCof=    0.00 CofMax=   10.00 Det=-8.22D-15
 Inversion failed.  Reducing to 19 matrices.
 Large coefficients: NSaved= 19 BigCof=    0.00 CofMax=   10.00 Det=-8.26D-15
 Inversion failed.  Reducing to 18 matrices.
 Large coefficients: NSaved= 18 BigCof=    0.00 CofMax=   10.00 Det=-8.26D-15
 Inversion failed.  Reducing to 17 matrices.
 Large coefficients: NSaved= 17 BigCof=    0.00 CofMax=   10.00 Det=-8.26D-15
 Inversion failed.  Reducing to 16 matrices.
 Large coefficients: NSaved= 16 BigCof=    0.00 CofMax=   10.00 Det=-8.26D-15
 Inversion failed.  Reducing to 15 matrices.
 Coeff-Com:  0.106D-03-0.286D-03 0.395D-03-0.519D-03 0.607D-03-0.427D-03
 Coeff-Com:  0.307D-03 0.122D-03-0.104D-02 0.330D-02-0.302D-01 0.996D-01
 Coeff-Com: -0.105D+00-0.539D+00 0.157D+01
 Coeff:      0.106D-03-0.286D-03 0.395D-03-0.519D-03 0.607D-03-0.427D-03
 Coeff:      0.307D-03 0.122D-03-0.104D-02 0.330D-02-0.302D-01 0.996D-01
 Coeff:     -0.105D+00-0.539D+00 0.157D+01
 Gap=     0.150 Goal=   None    Shift=    0.000
 RMSDP=1.96D-08 MaxDP=4.46D-07 DE=-3.52D-12 OVMax= 7.37D-07

 Cycle  34  Pass 1  IDiag  3:
 E= -1.14070740018246     Delta-E=       -0.000000000001 Rises=F Damp=F
 DIIS: error= 1.42D-08 at cycle  34 NSaved=  16.
 NSaved=16 IEnMin=16 EnMin= -1.14070740018246     IErMin=16 ErrMin= 1.42D-08
 ErrMax= 1.42D-08  0.00D+00 EMaxC= 1.00D-01 BMatC= 8.74D-15 BMatP= 2.88D-14
 IDIUse=1 WtCom= 1.00D+00 WtEn= 0.00D+00
 Large coefficients: NSaved= 16 BigCof=    0.00 CofMax=   10.00 Det=-2.82D-15
 Inversion failed.  Reducing to 15 matrices.
 Coeff-Com:  0.857D-04-0.191D-03 0.160D-03-0.267D-03 0.414D-03 0.121D-03
 Coeff-Com: -0.532D-03 0.369D-03-0.215D-02 0.566D-02-0.220D-01 0.976D-01
 Coeff-Com: -0.176D+00-0.452D+00 0.155D+01
 Coeff:      0.857D-04-0.191D-03 0.160D-03-0.267D-03 0.414D-03 0.121D-03
 Coeff:     -0.532D-03 0.369D-03-0.215D-02 0.566D-02-0.220D-01 0.976D-01
 Coeff:     -0.176D+00-0.452D+00 0.155D+01
 Gap=     0.150 Goal=   None    Shift=    0.000
 RMSDP=1.33D-08 MaxDP=3.24D-07 DE=-6.82D-13 OVMax= 5.21D-07

 Cycle  35  Pass 1  IDiag  1:
 E= -1.14070740018246     Delta-E=        0.000000000000 Rises=F Damp=F
 DIIS: error= 6.34D-09 at cycle  35 NSaved=  16.
 NSaved=16 IEnMin=15 EnMin= -1.14070740018246     IErMin=16 ErrMin= 6.34D-09
 ErrMax= 6.34D-09  0.00D+00 EMaxC= 1.00D-01 BMatC= 2.47D-15 BMatP= 8.74D-15
 IDIUse=1 WtCom= 1.00D+00 WtEn= 0.00D+00
 Large coefficients: NSaved= 16 BigCof=    0.00 CofMax=   10.00 Det=-1.01D-15
 Inversion failed.  Reducing to 15 matrices.
 Coeff-Com: -0.183D-04 0.273D-04-0.153D-05 0.110D-03-0.250D-03 0.634D-04
 Coeff-Com:  0.768D-04 0.234D-03-0.210D-02 0.724D-02-0.264D-01 0.100D+00
 Coeff-Com: -0.215D+00-0.209D+00 0.134D+01
 Coeff:     -0.183D-04 0.273D-04-0.153D-05 0.110D-03-0.250D-03 0.634D-04
 Coeff:      0.768D-04 0.234D-03-0.210D-02 0.724D-02-0.264D-01 0.100D+00
 Coeff:     -0.215D+00-0.209D+00 0.134D+01
 RMSDP=6.55D-09 MaxDP=1.52D-07 DE= 0.00D+00 OVMax= 5.21D-07

 Cycle  36  Pass 2  IDiag  1:
 SCF Done:  E(RPM6) =  -1.14070740018     A.U. after   36 cycles
            NFock= 35  Conv=0.66D-08     -V/T= 0.9950
 KE=-2.272490795239D+02 PE=-1.342213621380D+03 EE= 7.239861485543D+02
 Leave Link  502 at Fri Jan  7 12:01:08 2022, MaxMem=   402653184 cpu:             250.1 elap:              44.6
 (Enter /work/01114/jfonner/frontera/gaussian/16rC.01/g16/l601.exe)
 Copying SCF densities to generalized density rwf, IOpCl= 0 IROHF=0.

 **********************************************************************

            Population analysis using the SCF Density.

 **********************************************************************

 Alpha  occ. eigenvalues --   -1.72941  -1.68950  -1.68387  -1.67047  -1.60862
 Alpha  occ. eigenvalues --   -1.60191  -1.58129  -1.56948  -1.56780  -1.55772
 Alpha  occ. eigenvalues --   -1.50765  -1.49416  -1.43957  -1.42686  -1.38824
 Alpha  occ. eigenvalues --   -1.34163  -1.30382  -1.24550  -1.21385  -1.19375
 Alpha  occ. eigenvalues --   -1.15466  -1.13300  -1.13026  -1.11133  -1.08901
 Alpha  occ. eigenvalues --   -1.08379  -1.07191  -1.06391  -1.03850  -1.03113
 Alpha  occ. eigenvalues --   -1.02092  -1.01498  -1.00831  -0.99721  -0.98870
 Alpha  occ. eigenvalues --   -0.97985  -0.97584  -0.94138  -0.93641  -0.92688
 Alpha  occ. eigenvalues --   -0.91400  -0.90834  -0.89930  -0.87493  -0.87344
 Alpha  occ. eigenvalues --   -0.86356  -0.85278  -0.83549  -0.83263  -0.82999
 Alpha  occ. eigenvalues --   -0.78407  -0.76358
 Alpha virt. eigenvalues --   -0.64271  -0.61494  -0.60352  -0.56851  -0.56412
 Alpha virt. eigenvalues --   -0.54907  -0.53250  -0.51435  -0.49608  -0.49003
 Alpha virt. eigenvalues --   -0.48426  -0.45647  -0.45356  -0.43084  -0.42051
 Alpha virt. eigenvalues --   -0.41666  -0.41516  -0.40856  -0.39848  -0.39182
 Alpha virt. eigenvalues --   -0.38672  -0.38283  -0.36542  -0.36203  -0.35233
 Alpha virt. eigenvalues --   -0.34931  -0.33903  -0.33026  -0.32331  -0.31654
 Alpha virt. eigenvalues --   -0.30298  -0.28549  -0.27769  -0.24753  -0.21018
 Alpha virt. eigenvalues --   -0.19412  -0.03856
          Condensed to atoms (all electrons):
               1          2          3          4          5          6
     1  C    3.511036   0.000000   0.000000   0.000000   0.000000   0.000000
     2  O    0.000000   6.197518   0.000000   0.000000   0.000000   0.000000
     3  N    0.000000   0.000000   5.303300   0.000000   0.000000   0.000000
     4  C    0.000000   0.000000   0.000000   3.853026   0.000000   0.000000
     5  C    0.000000   0.000000   0.000000   0.000000   3.501096   0.000000
     6  O    0.000000   0.000000   0.000000   0.000000   0.000000   6.284806
     7  N    0.000000   0.000000   0.000000   0.000000   0.000000   0.000000
     8  C    0.000000   0.000000   0.000000   0.000000   0.000000   0.000000
     9  C    0.000000   0.000000   0.000000   0.000000   0.000000   0.000000
    10  O    0.000000   0.000000   0.000000   0.000000   0.000000   0.000000
    11  C    0.000000   0.000000   0.000000   0.000000   0.000000   0.000000
    12  O    0.000000   0.000000   0.000000   0.000000   0.000000   0.000000
    13  N    0.000000   0.000000   0.000000   0.000000   0.000000   0.000000
    14  C    0.000000   0.000000   0.000000   0.000000   0.000000   0.000000
    15  C    0.000000   0.000000   0.000000   0.000000   0.000000   0.000000
    16  O    0.000000   0.000000   0.000000   0.000000   0.000000   0.000000
    17  N    0.000000   0.000000   0.000000   0.000000   0.000000   0.000000
    18  C    0.000000   0.000000   0.000000   0.000000   0.000000   0.000000
    19  C    0.000000   0.000000   0.000000   0.000000   0.000000   0.000000
    20  O    0.000000   0.000000   0.000000   0.000000   0.000000   0.000000
    21  C    0.000000   0.000000   0.000000   0.000000   0.000000   0.000000
    22  H    0.000000   0.000000   0.000000   0.000000   0.000000   0.000000
    23  H    0.000000   0.000000   0.000000   0.000000   0.000000   0.000000
    24  H    0.000000   0.000000   0.000000   0.000000   0.000000   0.000000
    25  H    0.000000   0.000000   0.000000   0.000000   0.000000   0.000000
    26  H    0.000000   0.000000   0.000000   0.000000   0.000000   0.000000
               7          8          9         10         11         12
     1  C    0.000000   0.000000   0.000000   0.000000   0.000000   0.000000
     2  O    0.000000   0.000000   0.000000   0.000000   0.000000   0.000000
     3  N    0.000000   0.000000   0.000000   0.000000   0.000000   0.000000
     4  C    0.000000   0.000000   0.000000   0.000000   0.000000   0.000000
     5  C    0.000000   0.000000   0.000000   0.000000   0.000000   0.000000
     6  O    0.000000   0.000000   0.000000   0.000000   0.000000   0.000000
     7  N    5.380515   0.000000   0.000000   0.000000   0.000000   0.000000
     8  C    0.000000   3.756629   0.000000   0.000000   0.000000   0.000000
     9  C    0.000000   0.000000   3.611664   0.000000   0.000000   0.000000
    10  O    0.000000   0.000000   0.000000   5.964091   0.000000   0.000000
    11  C    0.000000   0.000000   0.000000   0.000000   3.562929   0.000000
    12  O    0.000000   0.000000   0.000000   0.000000   0.000000   6.438717
    13  N    0.000000   0.000000   0.000000   0.000000   0.000000   0.000000
    14  C    0.000000   0.000000   0.000000   0.000000   0.000000   0.000000
    15  C    0.000000   0.000000   0.000000   0.000000   0.000000   0.000000
    16  O    0.000000   0.000000   0.000000   0.000000   0.000000   0.000000
    17  N    0.000000   0.000000   0.000000   0.000000   0.000000   0.000000
    18  C    0.000000   0.000000   0.000000   0.000000   0.000000   0.000000
    19  C    0.000000   0.000000   0.000000   0.000000   0.000000   0.000000
    20  O    0.000000   0.000000   0.000000   0.000000   0.000000   0.000000
    21  C    0.000000   0.000000   0.000000   0.000000   0.000000   0.000000
    22  H    0.000000   0.000000   0.000000   0.000000   0.000000   0.000000
    23  H    0.000000   0.000000   0.000000   0.000000   0.000000   0.000000
    24  H    0.000000   0.000000   0.000000   0.000000   0.000000   0.000000
    25  H    0.000000   0.000000   0.000000   0.000000   0.000000   0.000000
    26  H    0.000000   0.000000   0.000000   0.000000   0.000000   0.000000
              13         14         15         16         17         18
     1  C    0.000000   0.000000   0.000000   0.000000   0.000000   0.000000
     2  O    0.000000   0.000000   0.000000   0.000000   0.000000   0.000000
     3  N    0.000000   0.000000   0.000000   0.000000   0.000000   0.000000
     4  C    0.000000   0.000000   0.000000   0.000000   0.000000   0.000000
     5  C    0.000000   0.000000   0.000000   0.000000   0.000000   0.000000
     6  O    0.000000   0.000000   0.000000   0.000000   0.000000   0.000000
     7  N    0.000000   0.000000   0.000000   0.000000   0.000000   0.000000
     8  C    0.000000   0.000000   0.000000   0.000000   0.000000   0.000000
     9  C    0.000000   0.000000   0.000000   0.000000   0.000000   0.000000
    10  O    0.000000   0.000000   0.000000   0.000000   0.000000   0.000000
    11  C    0.000000   0.000000   0.000000   0.000000   0.000000   0.000000
    12  O    0.000000   0.000000   0.000000   0.000000   0.000000   0.000000
    13  N    5.563245   0.000000   0.000000   0.000000   0.000000   0.000000
    14  C    0.000000   3.769563   0.000000   0.000000   0.000000   0.000000
    15  C    0.000000   0.000000   3.705516   0.000000   0.000000   0.000000
    16  O    0.000000   0.000000   0.000000   6.185492   0.000000   0.000000
    17  N    0.000000   0.000000   0.000000   0.000000   5.281812   0.000000
    18  C    0.000000   0.000000   0.000000   0.000000   0.000000   3.531466
    19  C    0.000000   0.000000   0.000000   0.000000   0.000000   0.000000
    20  O    0.000000   0.000000   0.000000   0.000000   0.000000   0.000000
    21  C    0.000000   0.000000   0.000000   0.000000   0.000000   0.000000
    22  H    0.000000   0.000000   0.000000   0.000000   0.000000   0.000000
    23  H    0.000000   0.000000   0.000000   0.000000   0.000000   0.000000
    24  H    0.000000   0.000000   0.000000   0.000000   0.000000   0.000000
    25  H    0.000000   0.000000   0.000000   0.000000   0.000000   0.000000
    26  H    0.000000   0.000000   0.000000   0.000000   0.000000   0.000000
              19         20         21         22         23         24
     1  C    0.000000   0.000000   0.000000   0.000000   0.000000   0.000000
     2  O    0.000000   0.000000   0.000000   0.000000   0.000000   0.000000
     3  N    0.000000   0.000000   0.000000   0.000000   0.000000   0.000000
     4  C    0.000000   0.000000   0.000000   0.000000   0.000000   0.000000
     5  C    0.000000   0.000000   0.000000   0.000000   0.000000   0.000000
     6  O    0.000000   0.000000   0.000000   0.000000   0.000000   0.000000
     7  N    0.000000   0.000000   0.000000   0.000000   0.000000   0.000000
     8  C    0.000000   0.000000   0.000000   0.000000   0.000000   0.000000
     9  C    0.000000   0.000000   0.000000   0.000000   0.000000   0.000000
    10  O    0.000000   0.000000   0.000000   0.000000   0.000000   0.000000
    11  C    0.000000   0.000000   0.000000   0.000000   0.000000   0.000000
    12  O    0.000000   0.000000   0.000000   0.000000   0.000000   0.000000
    13  N    0.000000   0.000000   0.000000   0.000000   0.000000   0.000000
    14  C    0.000000   0.000000   0.000000   0.000000   0.000000   0.000000
    15  C    0.000000   0.000000   0.000000   0.000000   0.000000   0.000000
    16  O    0.000000   0.000000   0.000000   0.000000   0.000000   0.000000
    17  N    0.000000   0.000000   0.000000   0.000000   0.000000   0.000000
    18  C    0.000000   0.000000   0.000000   0.000000   0.000000   0.000000
    19  C    4.117132   0.000000   0.000000   0.000000   0.000000   0.000000
    20  O    0.000000   6.051162   0.000000   0.000000   0.000000   0.000000
    21  C    0.000000   0.000000   2.974999   0.000000   0.000000   0.000000
    22  H    0.000000   0.000000   0.000000   0.869013   0.000000   0.000000
    23  H    0.000000   0.000000   0.000000   0.000000   1.748449   0.000000
    24  H    0.000000   0.000000   0.000000   0.000000   0.000000   0.294649
    25  H    0.000000   0.000000   0.000000   0.000000   0.000000   0.000000
    26  H    0.000000   0.000000   0.000000   0.000000   0.000000   0.000000
              25         26
     1  C    0.000000   0.000000
     2  O    0.000000   0.000000
     3  N    0.000000   0.000000
     4  C    0.000000   0.000000
     5  C    0.000000   0.000000
     6  O    0.000000   0.000000
     7  N    0.000000   0.000000
     8  C    0.000000   0.000000
     9  C    0.000000   0.000000
    10  O    0.000000   0.000000
    11  C    0.000000   0.000000
    12  O    0.000000   0.000000
    13  N    0.000000   0.000000
    14  C    0.000000   0.000000
    15  C    0.000000   0.000000
    16  O    0.000000   0.000000
    17  N    0.000000   0.000000
    18  C    0.000000   0.000000
    19  C    0.000000   0.000000
    20  O    0.000000   0.000000
    21  C    0.000000   0.000000
    22  H    0.000000   0.000000
    23  H    0.000000   0.000000
    24  H    0.000000   0.000000
    25  H    0.836777   0.000000
    26  H    0.000000   1.705401
 Mulliken charges:
               1
     1  C    0.488964
     2  O   -0.197518
     3  N   -0.303300
     4  C    0.146974
     5  C    0.498904
     6  O   -0.284806
     7  N   -0.380515
     8  C    0.243371
     9  C    0.388336
    10  O    0.035909
    11  C    0.437071
    12  O   -0.438717
    13  N   -0.563245
    14  C    0.230437
    15  C    0.294484
    16  O   -0.185492
    17  N   -0.281812
    18  C    0.468534
    19  C   -0.117132
    20  O   -0.051162
    21  C    1.025001
    22  H    0.130987
    23  H   -0.748449
    24  H    0.705351
    25  H    0.163223
    26  H   -0.705401
 Sum of Mulliken charges =   1.00000
 Mulliken charges with hydrogens summed into heavy atoms:
               1
     1  C    0.619952
     2  O   -0.197518
     3  N   -0.303300
     4  C    0.146974
     5  C    0.498904
     6  O   -0.284806
     7  N   -0.380515
     8  C    0.243371
     9  C   -0.360113
    10  O    0.035909
    11  C    0.437071
    12  O   -0.438717
    13  N   -0.563245
    14  C    0.935789
    15  C    0.294484
    16  O   -0.185492
    17  N   -0.281812
    18  C   -0.073644
    19  C   -0.117132
    20  O   -0.051162
    21  C    1.025001
 Charge=              1.0000 electrons
 Dipole moment (field-independent basis, Debye):
    X=              8.8225    Y=              5.4809    Z=             95.8485  Tot=             96.4096
 N-N= 8.443358449498D+02 E-N=-1.342213621448D+03  KE=-2.272490795239D+02
 Leave Link  601 at Fri Jan  7 12:01:09 2022, MaxMem=   402653184 cpu:               2.6 elap:               0.7
 (Enter /work/01114/jfonner/frontera/gaussian/16rC.01/g16/l9999.exe)

 Test job not archived.
 1\1\GINC-C208-012\SP\RPM6\ZDO\C11H5N4O6(1+)\SA748948\07-Jan-2022\0\\#p
  int=acc2e=12 pm6 charge nosymm\\Atom number=26\\1,1\C,0,3.00599759,0.
 04699653,14.36101452\O,0,2.95799299,-1.16900433,14.51500215\N,0,3.4810
 0165,0.88700141,15.26198797\C,0,4.16300283,0.39199376,16.44199186\C,0,
 3.42400002,0.96498763,17.63099045\O,0,3.13600342,2.10999946,17.6119939
 1\N,0,3.17300496,0.12899699,18.64699945\C,0,2.55900471,0.51600847,19.9
 030147\C,0,5.6879954,0.75001429,16.38901157\O,0,6.26399949,0.13000576,
 15.2359942\C,0,3.34998801,-0.12200514,21.0140061\O,0,3.36600152,-1.339
 0105,21.13999871\N,0,4.06699918,0.68799289,21.76798888\C,0,4.88800427,
 0.20499636,22.85099854\C,0,4.35000563,0.76901044,24.17399087\O,0,4.161
 01162,1.98101482,24.26899258\N,0,4.06500852,-0.11998297,25.15099103\C,
 0,3.72000682,0.31300568,26.51500903\C,0,1.13798326,-0.02100218,19.9830
 1291\O,0,0.39299908,0.39401168,18.82399841\C,0,0.48599834,0.50100263,2
 1.16700089\H,0,2.70244423,0.50122771,13.44099855\H,0,6.21369755,0.3621
 9304,17.23643822\H,0,5.91043476,0.48869187,22.71296682\H,0,4.57410234,
 0.19197947,27.14807578\H,0,2.86415818,-0.20218905,26.89841155\\Version
 =ES64L-G16RevC.01\HF=-1.1407074\RMSD=6.553e-09\Dipole=-3.0971239,1.451
 4932,0.583371\PG=C01 [X(C11H5N4O6)]\\@


 SLITHERY-DITHERY
 FRIEDRICH A. KEKULE
 DREAMT ON A BUS OF THINGS
 FREUD WOULD THINK KEEN.
 MOST OF THE TIME THEY WERE
 HERPETOLOGICAL
 BITING THEIR TAILS IN THE
 SHAPE OF BENZENE.
 Job cpu time:       0 days  0 hours  5 minutes 13.6 seconds.
 Elapsed time:       0 days  0 hours  0 minutes 56.7 seconds.
 File lengths (MBytes):  RWF=     10 Int=      0 D2E=      0 Chk=      2 Scr=      1
 Normal termination of Gaussian 16 at Fri Jan  7 12:01:10 2022.
