Atom number=15                                                          
SP        RPM6                                                        ZDO                 
Number of atoms                            I               15
Info1-9                                    I   N=           9
          79          78           0           0           0         111
           1           8        2302
Full Title                                 C   N=           2
Atom number=15          
Route                                      C   N=           3
#p int=acc2e=12 pm6 charge nosymm   
Charge                                     I                3
Multiplicity                               I                1
Number of electrons                        I               58
Number of alpha electrons                  I               29
Number of beta electrons                   I               29
Number of basis functions                  I               54
Number of independent functions            I               54
Number of point charges in /Mol/           I                0
Number of translation vectors              I                0
Atomic numbers                             I   N=          15
           7           6           6           8           7           6
           6           8           7           6           6           6
           6           1           1
Nuclear charges                            R   N=          15
  5.00000000E+00  4.00000000E+00  4.00000000E+00  6.00000000E+00  5.00000000E+00
  4.00000000E+00  4.00000000E+00  6.00000000E+00  5.00000000E+00  4.00000000E+00
  4.00000000E+00  4.00000000E+00  4.00000000E+00  1.00000000E+00  1.00000000E+00
Current cartesian coordinates              R   N=          45
 -1.28784988E+01 -1.26233996E+00  3.03681636E+00 -1.07978719E+01  3.78599070E-03
  4.48430288E+00 -8.23352197E+00 -1.27178323E+00  4.89059840E+00 -7.95951145E+00
 -3.53377771E+00  4.70917921E+00 -6.38916554E+00  2.36197738E-01  5.58035747E+00
 -3.89662390E+00 -7.37002581E-01  6.18696184E+00 -3.09160432E+00  3.30694740E-01
  8.69275385E+00 -3.29569780E+00  2.56246921E+00  9.18783135E+00 -2.06925099E+00
 -1.32281734E+00  1.02328755E+01 -1.08091452E+00 -5.87715313E-01  1.26025806E+01
 -1.87649655E+00 -8.50409070E-02  4.15173145E+00  7.36992735E-01 -9.22167697E-01
  4.98888638E+00 -2.60404543E+00 -1.25097881E+00  1.69510416E+00  8.00144207E-01
 -1.31109541E+00  1.27664447E+01 -2.19023651E+00 -1.38365161E+00  1.40940236E+01
Number of symbols in /Mol/                 I                0
Int Atom Types                             I   N=          15
           0           0           0           0           0           0
           0           0           0           0           0           0
           0           0           0
Force Field                                I                0
Atom Types                                 C   N=          15
                                                            
                                                            
                                                            
MM charges                                 R   N=          15
  0.00000000E+00  0.00000000E+00  0.00000000E+00  0.00000000E+00  0.00000000E+00
  0.00000000E+00  0.00000000E+00  0.00000000E+00  0.00000000E+00  0.00000000E+00
  0.00000000E+00  0.00000000E+00  0.00000000E+00  0.00000000E+00  0.00000000E+00
Integer atomic weights                     I   N=          15
          14          12          12          16          14          12
          12          16          14          12          12          12
          12           1           1
Real atomic weights                        R   N=          15
  1.40030740E+01  1.20000000E+01  1.20000000E+01  1.59949146E+01  1.40030740E+01
  1.20000000E+01  1.20000000E+01  1.59949146E+01  1.40030740E+01  1.20000000E+01
  1.20000000E+01  1.20000000E+01  1.20000000E+01  1.00782504E+00  1.00782504E+00
Atom fragment info                         I   N=          15
           0           0           0           0           0           0
           0           0           0           0           0           0
           0           0           0
Atom residue num                           I   N=          15
           0           0           0           0           0           0
           0           0           0           0           0           0
           0           0           0
Nuclear spins                              I   N=          15
           2           0           0           0           2           0
           0           0           2           0           0           0
           0           1           1
Nuclear ZEff                               R   N=          15
 -4.90000000E+00 -3.90000000E+00 -3.90000000E+00 -6.00000000E+00 -4.90000000E+00
 -3.90000000E+00 -3.90000000E+00 -6.00000000E+00 -4.90000000E+00 -3.90000000E+00
 -3.90000000E+00 -3.90000000E+00 -3.90000000E+00 -1.00000000E+00 -1.00000000E+00
Nuclear ZNuc                               R   N=          15
  7.00000000E+00  6.00000000E+00  6.00000000E+00  8.00000000E+00  7.00000000E+00
  6.00000000E+00  6.00000000E+00  8.00000000E+00  7.00000000E+00  6.00000000E+00
  6.00000000E+00  6.00000000E+00  6.00000000E+00  1.00000000E+00  1.00000000E+00
Nuclear QMom                               R   N=          15
  2.04400000E+00  0.00000000E+00  0.00000000E+00  0.00000000E+00  2.04400000E+00
  0.00000000E+00  0.00000000E+00  0.00000000E+00  2.04400000E+00  0.00000000E+00
  0.00000000E+00  0.00000000E+00  0.00000000E+00  0.00000000E+00  0.00000000E+00
Nuclear GFac                               R   N=          15
  4.03761000E-01  0.00000000E+00  0.00000000E+00  0.00000000E+00  4.03761000E-01
  0.00000000E+00  0.00000000E+00  0.00000000E+00  4.03761000E-01  0.00000000E+00
  0.00000000E+00  0.00000000E+00  0.00000000E+00  2.79284600E+00  2.79284600E+00
MicOpt                                     I   N=          15
          -1          -1          -1          -1          -1          -1
          -1          -1          -1          -1          -1          -1
          -1          -1          -1
Number of residues                         I                0
Number of secondary structures             I                0
Number of contracted shells                I               15
Number of primitive shells                 I               90
Pure/Cartesian d shells                    I                0
Pure/Cartesian f shells                    I                0
Highest angular momentum                   I                1
Largest degree of contraction              I                6
Shell types                                I   N=          15
          -1          -1          -1          -1          -1          -1
          -1          -1          -1          -1          -1          -1
          -1           0           0
Number of primitives per shell             I   N=          15
           6           6           6           6           6           6
           6           6           6           6           6           6
           6           6           6
Shell to atom map                          I   N=          15
           1           2           3           4           5           6
           7           8           9          10          11          12
          13          14          15
Primitive exponents                        R   N=          90
  1.54719623E+01  4.45513742E+00  1.75231709E+00  8.00868468E-01  3.98565014E-01
  2.04687870E-01  1.14476344E+01  3.29633588E+00  1.29653143E+00  5.92558930E-01
  2.94896438E-01  1.51447622E-01  1.14476344E+01  3.29633588E+00  1.29653143E+00
  5.92558930E-01  2.94896438E-01  1.51447622E-01  8.02643074E+01  2.31120341E+01
  9.09054165E+00  4.15468650E+00  2.06764625E+00  1.06186467E+00  1.54719623E+01
  4.45513742E+00  1.75231709E+00  8.00868468E-01  3.98565014E-01  2.04687870E-01
  1.14476344E+01  3.29633588E+00  1.29653143E+00  5.92558930E-01  2.94896438E-01
  1.51447622E-01  1.14476344E+01  3.29633588E+00  1.29653143E+00  5.92558930E-01
  2.94896438E-01  1.51447622E-01  8.02643074E+01  2.31120341E+01  9.09054165E+00
  4.15468650E+00  2.06764625E+00  1.06186467E+00  1.54719623E+01  4.45513742E+00
  1.75231709E+00  8.00868468E-01  3.98565014E-01  2.04687870E-01  1.14476344E+01
  3.29633588E+00  1.29653143E+00  5.92558930E-01  2.94896438E-01  1.51447622E-01
  1.14476344E+01  3.29633588E+00  1.29653143E+00  5.92558930E-01  2.94896438E-01
  1.51447622E-01  1.14476344E+01  3.29633588E+00  1.29653143E+00  5.92558930E-01
  2.94896438E-01  1.51447622E-01  1.14476344E+01  3.29633588E+00  1.29653143E+00
  5.92558930E-01  2.94896438E-01  1.51447622E-01  4.39461478E+00  1.26542531E+00
  4.97723458E-01  2.27476537E-01  1.13207340E-01  5.81389949E-02  4.39461478E+00
  1.26542531E+00  4.97723458E-01  2.27476537E-01  1.13207340E-01  5.81389949E-02
Contraction coefficients                   R   N=          90
 -9.73739553E-03 -7.26587678E-02 -1.71615520E-01  1.28977624E-01  7.28861451E-01
  3.01331742E-01 -9.73739553E-03 -7.26587678E-02 -1.71615520E-01  1.28977624E-01
  7.28861451E-01  3.01331742E-01 -9.73739553E-03 -7.26587678E-02 -1.71615520E-01
  1.28977624E-01  7.28861451E-01  3.01331742E-01 -9.73739553E-03 -7.26587678E-02
 -1.71615520E-01  1.28977624E-01  7.28861451E-01  3.01331742E-01 -9.73739553E-03
 -7.26587678E-02 -1.71615520E-01  1.28977624E-01  7.28861451E-01  3.01331742E-01
 -9.73739553E-03 -7.26587678E-02 -1.71615520E-01  1.28977624E-01  7.28861451E-01
  3.01331742E-01 -9.73739553E-03 -7.26587678E-02 -1.71615520E-01  1.28977624E-01
  7.28861451E-01  3.01331742E-01 -9.73739553E-03 -7.26587678E-02 -1.71615520E-01
  1.28977624E-01  7.28861451E-01  3.01331742E-01 -9.73739553E-03 -7.26587678E-02
 -1.71615520E-01  1.28977624E-01  7.28861451E-01  3.01331742E-01 -9.73739553E-03
 -7.26587678E-02 -1.71615520E-01  1.28977624E-01  7.28861451E-01  3.01331742E-01
 -9.73739553E-03 -7.26587678E-02 -1.71615520E-01  1.28977624E-01  7.28861451E-01
  3.01331742E-01 -9.73739553E-03 -7.26587678E-02 -1.71615520E-01  1.28977624E-01
  7.28861451E-01  3.01331742E-01 -9.73739553E-03 -7.26587678E-02 -1.71615520E-01
  1.28977624E-01  7.28861451E-01  3.01331742E-01 -9.73739553E-03 -7.26587678E-02
 -1.71615520E-01  1.28977624E-01  7.28861451E-01  3.01331742E-01 -9.73739553E-03
 -7.26587678E-02 -1.71615520E-01  1.28977624E-01  7.28861451E-01  3.01331742E-01
P(S=P) Contraction coefficients            R   N=          90
 -8.10494336E-03 -1.71547892E-02  7.36978576E-02  3.96514999E-01  4.97808488E-01
  1.17482582E-01 -8.10494336E-03 -1.71547892E-02  7.36978576E-02  3.96514999E-01
  4.97808488E-01  1.17482582E-01 -8.10494336E-03 -1.71547892E-02  7.36978576E-02
  3.96514999E-01  4.97808488E-01  1.17482582E-01 -8.10494336E-03 -1.71547892E-02
  7.36978576E-02  3.96514999E-01  4.97808488E-01  1.17482582E-01 -8.10494336E-03
 -1.71547892E-02  7.36978576E-02  3.96514999E-01  4.97808488E-01  1.17482582E-01
 -8.10494336E-03 -1.71547892E-02  7.36978576E-02  3.96514999E-01  4.97808488E-01
  1.17482582E-01 -8.10494336E-03 -1.71547892E-02  7.36978576E-02  3.96514999E-01
  4.97808488E-01  1.17482582E-01 -8.10494336E-03 -1.71547892E-02  7.36978576E-02
  3.96514999E-01  4.97808488E-01  1.17482582E-01 -8.10494336E-03 -1.71547892E-02
  7.36978576E-02  3.96514999E-01  4.97808488E-01  1.17482582E-01 -8.10494336E-03
 -1.71547892E-02  7.36978576E-02  3.96514999E-01  4.97808488E-01  1.17482582E-01
 -8.10494336E-03 -1.71547892E-02  7.36978576E-02  3.96514999E-01  4.97808488E-01
  1.17482582E-01 -8.10494336E-03 -1.71547892E-02  7.36978576E-02  3.96514999E-01
  4.97808488E-01  1.17482582E-01 -8.10494336E-03 -1.71547892E-02  7.36978576E-02
  3.96514999E-01  4.97808488E-01  1.17482582E-01  0.00000000E+00  0.00000000E+00
  0.00000000E+00  0.00000000E+00  0.00000000E+00  0.00000000E+00  0.00000000E+00
  0.00000000E+00  0.00000000E+00  0.00000000E+00  0.00000000E+00  0.00000000E+00
Coordinates of each shell                  R   N=          45
 -1.28784988E+01 -1.26233996E+00  3.03681636E+00 -1.07978719E+01  3.78599070E-03
  4.48430288E+00 -8.23352197E+00 -1.27178323E+00  4.89059840E+00 -7.95951145E+00
 -3.53377771E+00  4.70917921E+00 -6.38916554E+00  2.36197738E-01  5.58035747E+00
 -3.89662390E+00 -7.37002581E-01  6.18696184E+00 -3.09160432E+00  3.30694740E-01
  8.69275385E+00 -3.29569780E+00  2.56246921E+00  9.18783135E+00 -2.06925099E+00
 -1.32281734E+00  1.02328755E+01 -1.08091452E+00 -5.87715313E-01  1.26025806E+01
 -1.87649655E+00 -8.50409070E-02  4.15173145E+00  7.36992735E-01 -9.22167697E-01
  4.98888638E+00 -2.60404543E+00 -1.25097881E+00  1.69510416E+00  8.00144207E-01
 -1.31109541E+00  1.27664447E+01 -2.19023651E+00 -1.38365161E+00  1.40940236E+01
Num ILSW                                   I              100
ILSW                                       I   N=         100
           0           0           0           0           2           0
           0           0           0           0           0          -1
           5           0           0           0           0           0
           0           0           0           0           0           0
           1           1           0           0           0           0
           0           0      100000           0          -1           0
           0           0           0           0           0           0
           0           0           0          40           0           0
           0 -2000000000           1           0           0           0
           0           0           4          52           0           0
           0           1           0           0           0           0
           0           0           0          15           0           1
           0           0           0           0           0           0
           0           0           0           0           0           0
           0           0           0           0           0           0
           0           0           0           0           0           0
           0           0           0           0
Num RLSW                                   I               52
RLSW                                       R   N=          52
  1.00000000E+00  1.00000000E+00  1.00000000E+00  1.00000000E+00  1.00000000E+00
  0.00000000E+00  0.00000000E+00  1.00000000E+00  0.00000000E+00  0.00000000E+00
  0.00000000E+00  0.00000000E+00  1.00000000E+00  0.00000000E+00  0.00000000E+00
  0.00000000E+00  0.00000000E+00  1.00000000E+00  0.00000000E+00  0.00000000E+00
  0.00000000E+00  0.00000000E+00  1.00000000E+00  0.00000000E+00  0.00000000E+00
  0.00000000E+00  0.00000000E+00  1.00000000E+00  0.00000000E+00  0.00000000E+00
  0.00000000E+00  0.00000000E+00  1.00000000E+00  0.00000000E+00  0.00000000E+00
  0.00000000E+00  0.00000000E+00  0.00000000E+00  1.00000000E+00  1.00000000E+00
  0.00000000E+00  1.00000000E+00  0.00000000E+00  0.00000000E+00  0.00000000E+00
  0.00000000E+00  0.00000000E+00  0.00000000E+00  0.00000000E+00  0.00000000E+00
  0.00000000E+00  0.00000000E+00
MxBond                                     I                3
NBond                                      I   N=          15
           1           2           3           1           2           3
           3           1           2           3           3           1
           1           1           1
IBond                                      I   N=          45
           2           0           0           1           3           0
           2           4           5           3           0           0
           3           6           0           5           7          11
           6           8           9           7           0           0
           7          10           0           9          14          15
           6          12          13          11           0           0
          11           0           0          10           0           0
          10           0           0
RBond                                      R   N=          45
  1.00000000E+00  0.00000000E+00  0.00000000E+00  1.00000000E+00  1.00000000E+00
  0.00000000E+00  1.00000000E+00  2.00000000E+00  1.50000000E+00  2.00000000E+00
  0.00000000E+00  0.00000000E+00  1.50000000E+00  1.00000000E+00  0.00000000E+00
  1.00000000E+00  1.00000000E+00  1.00000000E+00  1.00000000E+00  2.00000000E+00
  1.50000000E+00  2.00000000E+00  0.00000000E+00  0.00000000E+00  1.50000000E+00
  1.00000000E+00  0.00000000E+00  1.00000000E+00  1.00000000E+00  1.00000000E+00
  1.00000000E+00  1.00000000E+00  1.00000000E+00  1.00000000E+00  0.00000000E+00
  0.00000000E+00  1.00000000E+00  0.00000000E+00  0.00000000E+00  1.00000000E+00
  0.00000000E+00  0.00000000E+00  1.00000000E+00  0.00000000E+00  0.00000000E+00
Virial Ratio                               R      9.864390538672779E-01
SCF Energy                                 R     -1.636485752494139E+00
Total Energy                               R     -1.636485752494139E+00
RMS Density                                R      8.235438333792856E-09
Job Status                                 I                1
Nuclear derivative order                   I                0
External E-field                           R   N=          35
  0.00000000E+00  0.00000000E+00  0.00000000E+00  0.00000000E+00  0.00000000E+00
  0.00000000E+00  0.00000000E+00  0.00000000E+00  0.00000000E+00  0.00000000E+00
  0.00000000E+00  0.00000000E+00  0.00000000E+00  0.00000000E+00  0.00000000E+00
  0.00000000E+00  0.00000000E+00  0.00000000E+00  0.00000000E+00  0.00000000E+00
  0.00000000E+00  0.00000000E+00  0.00000000E+00  0.00000000E+00  0.00000000E+00
  0.00000000E+00  0.00000000E+00  0.00000000E+00  0.00000000E+00  0.00000000E+00
  0.00000000E+00  0.00000000E+00  0.00000000E+00  0.00000000E+00  0.00000000E+00
IOpCl                                      I                0
IROHF                                      I                0
Alpha Orbital Energies                     R   N=          54
 -1.69260374E+00 -1.62019253E+00 -1.59624702E+00 -1.52569666E+00 -1.44946557E+00
 -1.38898213E+00 -1.33324795E+00 -1.28810856E+00 -1.22078984E+00 -1.17410553E+00
 -1.12289244E+00 -1.07830029E+00 -1.06005337E+00 -1.04038990E+00 -1.02785505E+00
 -9.99563700E-01 -9.67461864E-01 -9.49412568E-01 -9.31879724E-01 -9.05230440E-01
 -8.93357894E-01 -8.68491277E-01 -8.58295366E-01 -8.37585790E-01 -8.21737530E-01
 -7.79725681E-01 -7.74048735E-01 -7.47738643E-01 -7.18515382E-01 -6.20520725E-01
 -5.07830631E-01 -4.97867866E-01 -4.67668518E-01 -4.54730652E-01 -4.45760011E-01
 -4.31524990E-01 -4.14624534E-01 -4.11431145E-01 -3.96829135E-01 -3.84931270E-01
 -3.53256182E-01 -3.42780006E-01 -3.34887222E-01 -3.24716211E-01 -3.13776207E-01
 -3.12760117E-01 -2.91085427E-01 -2.88197358E-01 -2.64405358E-01 -2.60331160E-01
 -2.51113309E-01 -2.32116703E-01 -2.10908385E-01 -1.93619454E-02
Alpha MO coefficients                      R   N=        2916
 -6.99577309E-04 -3.69809939E-04 -1.01588875E-04 -3.44364359E-04 -9.46578795E-04
  6.53203089E-04  2.16034383E-04  3.88209731E-04  8.62303614E-03  9.90680536E-03
  1.45982951E-03  5.44931451E-03  2.76375483E-03  1.54367253E-03  3.42609083E-03
  1.39128585E-03  4.79562582E-02  2.68000965E-02 -7.42559372E-03  1.93108662E-02
  1.26725701E-01  2.42094012E-02  4.48740110E-02  8.69127759E-02  5.30132387E-01
  5.36688304E-02  9.23318570E-02  1.49994099E-01  4.46116417E-01  3.98851329E-02
 -2.69299086E-01 -2.79050871E-02  5.15887916E-01 -4.33304718E-02  2.08071887E-01
 -2.36219171E-02  2.02744423E-01 -6.04524014E-02 -7.88770984E-03 -1.29366973E-01
  2.83796455E-02 -9.77222272E-03 -3.32863478E-04  3.25278331E-02  1.36525996E-02
 -1.19931687E-02  3.13640503E-03  7.15245785E-03 -5.20886518E-04 -5.81419569E-04
  4.42798854E-04  3.40503438E-03  5.93671774E-02  4.40497053E-02  6.85553850E-03
  1.37225877E-02 -3.41527608E-03  4.06639658E-03  7.92918938E-02  7.95345528E-02
 -4.17013587E-02  1.26532390E-02  5.11548369E-01  1.65496247E-01 -1.17763166E-01
  3.23293666E-02  4.39771232E-01  5.64814126E-03  2.76750348E-01  3.30195777E-02
  5.15851455E-01 -3.96113869E-02 -2.02548115E-01 -3.72940969E-02  2.17819785E-01
 -1.34685378E-01  2.59273553E-02 -4.01690672E-02  2.49656003E-02 -4.87671273E-02
  1.70257066E-02 -6.96376495E-02  2.54681668E-02 -1.10067577E-02 -1.05001816E-02
 -2.08174486E-02 -9.87588160E-02 -1.08831835E-02 -2.55391829E-02 -2.31857620E-02
 -5.93636285E-02  1.15019552E-02  7.31766035E-03  2.85074109E-02  5.34369155E-02
 -4.49682699E-02 -1.11232626E-02  1.71679493E-02  4.69659069E-03 -8.72091151E-03
  4.23842955E-04 -5.43966903E-04  2.54477851E-02 -7.73387625E-03  4.72004473E-03
  2.00910944E-02 -2.03606444E-02 -1.37105721E-02 -2.52747025E-03 -3.19829258E-03
  3.35599778E-04 -1.00113407E-03 -1.34417857E-02 -1.12988150E-02  8.18283952E-03
 -9.75788701E-04 -7.54846577E-02 -1.39895975E-02  3.42766086E-02  3.93963796E-04
 -8.71620791E-02  2.82675284E-03 -4.68644038E-02 -4.39917131E-03 -1.99560468E-02
  2.78099478E-02  2.89659976E-02  1.36187193E-02 -6.88650011E-03 -7.24245190E-03
  4.59879197E-02 -6.02811690E-03  5.55876467E-02 -1.13663271E-01  4.05832553E-01
 -7.15332129E-02  6.11976781E-01 -3.34505639E-03 -1.61498595E-01 -7.51448597E-02
 -5.24291934E-01 -1.37250330E-02 -8.62031610E-02 -4.61609778E-02 -2.61857942E-01
  4.95983282E-02  4.44088471E-02  1.26418886E-01 -4.65161882E-04 -4.15243657E-03
  9.67134292E-03  2.20722403E-03 -6.13507083E-03  2.93939750E-03  1.91616916E-03
 -2.45206066E-03 -2.57197024E-03 -3.89514503E-04  1.00090672E-03 -1.68669458E-03
 -9.27904287E-02 -6.14764160E-02  2.73719854E-02  1.88178813E-02 -1.79782235E-05
  1.00821589E-02  2.79867674E-02 -3.30125259E-03 -4.39873094E-02 -9.48173127E-03
  1.09104894E-01 -1.10759562E-01 -3.53313511E-01 -7.09536532E-02  5.61297795E-01
 -6.20212933E-02  1.78949533E-01  2.20972131E-03 -4.66884695E-01 -8.66123879E-02
  6.80824402E-02 -1.49058569E-02 -3.59575857E-01  8.02186973E-02 -6.78212724E-02
  1.42254272E-02 -9.97159864E-02  4.14342043E-02  1.08310751E-01  1.30327138E-01
  1.47065595E-01  1.75291895E-02 -7.06660357E-03  3.08386031E-02  2.14340276E-02
  3.53764813E-02  1.12737447E-02  7.99908019E-02  7.65996793E-02 -8.53289401E-03
 -8.65813802E-03 -2.23359274E-02 -1.53443775E-01  6.30938424E-02  3.07977654E-02
 -4.90107796E-02 -4.98294938E-02  3.84263567E-02 -4.85447619E-03  1.72023475E-03
 -6.21832466E-02  1.00595929E-03 -1.20857318E-02 -4.42758241E-02  2.95012286E-02
  1.91562314E-02 -5.72828021E-03 -8.36589280E-03 -2.70548490E-03 -2.81735280E-03
 -7.91704309E-02 -5.91607600E-02  5.78178350E-04 -1.29438264E-02 -1.61002794E-01
 -6.31268903E-02 -2.36931143E-01 -4.53024827E-02  2.64990537E-01 -2.45195731E-02
  1.04530435E-02 -6.95197670E-03 -2.72455371E-01  1.92518631E-01  6.54042014E-02
  6.68417324E-02  3.30961912E-01  1.73442213E-01  3.95562611E-02  6.54187322E-02
  2.68370343E-01  2.02003329E-03 -1.73616185E-01 -1.64348025E-01 -1.77886490E-01
 -2.98778001E-03 -4.59677058E-02 -5.39447209E-02 -5.70539720E-02 -1.16912210E-01
  1.55580510E-02 -2.72566608E-01 -3.02306038E-01  1.61612057E-02  4.87482928E-02
  5.91830915E-02  3.20569305E-01 -7.53146285E-03 -7.76408842E-02  7.32518661E-02
  1.86858832E-01 -1.03025929E-01  1.59267170E-02 -1.30557739E-02  1.38144417E-01
  2.40922799E-02  2.03662916E-02  8.23964743E-02 -1.30620257E-01 -8.01626224E-02
 -1.08077534E-02 -6.85977404E-03 -2.10746233E-03 -3.64021889E-03 -3.05285466E-02
 -1.27682385E-02  6.05332757E-03 -2.56942060E-03 -4.05940886E-02  8.41052929E-03
 -3.12063561E-02 -1.69578202E-02  2.90026460E-02  4.67304928E-03 -6.37397020E-03
 -5.59516873E-03 -2.37444120E-02  5.83707936E-02  5.37074433E-03 -3.36612526E-02
  7.89017595E-02  7.52339069E-02  6.82014946E-04 -2.10162303E-01 -2.29586778E-01
 -6.08134470E-03  1.58811453E-01 -3.78043735E-02  1.40772699E-01  2.02635184E-03
  6.67422794E-02 -2.65353386E-03 -2.10932763E-02  1.68240639E-01 -6.14568138E-02
  2.92989382E-01  3.75468788E-01  1.20652892E-02 -6.54580691E-02 -3.55332778E-02
  4.85520566E-01  3.32730432E-02 -1.36986829E-01 -6.81237098E-02  2.98550222E-01
 -1.38564115E-01  1.99427786E-02 -6.00151580E-02  3.45658426E-01  5.28161640E-02
  4.68852205E-02  1.53125815E-01  1.83871205E-01  1.02761020E-01  2.97957296E-01
  1.40595995E-01  5.62926990E-02  8.17802169E-02  4.18059183E-01  4.52665709E-02
 -1.06828564E-01 -4.23205040E-02  3.00915186E-01 -1.54665083E-01  1.95254506E-01
 -2.36125457E-02 -2.07162361E-01 -6.03672682E-02  7.08809087E-02 -9.99796890E-03
 -6.45871060E-02 -2.95050888E-01  2.50423464E-05 -9.71571140E-02 -2.27942907E-01
  1.43059393E-01 -7.20109433E-02 -1.86437945E-02  3.58605404E-02  9.94738651E-02
 -4.17094515E-02  1.34061213E-01  7.99158757E-03  3.94833667E-02 -1.62902296E-02
  4.78848997E-02  5.04114880E-02 -7.75554150E-02  5.82203907E-02 -1.55022744E-01
 -2.33963541E-01 -2.06044678E-02  4.35361183E-02 -6.59222378E-03  1.92246404E-01
  1.34055505E-01 -7.34596489E-02 -8.18510028E-02  2.23031574E-01 -7.38926017E-02
  1.16278008E-02 -3.85674856E-02  1.72803786E-01  4.63533303E-02  1.76586151E-02
  5.75964380E-02 -1.25579966E-01 -6.85247463E-02  5.30392248E-01  1.95249951E-01
  9.74135612E-02  1.27516537E-01  3.94609485E-01 -1.57806848E-01 -1.29738510E-01
 -1.19829398E-01 -3.18144411E-02 -1.88825219E-01 -3.91918847E-02 -5.53357747E-02
  4.53404333E-03 -6.83734981E-02 -1.54142711E-02 -2.06968573E-02 -4.93883831E-02
  1.84195042E-01  5.28541969E-02  7.43686998E-02  2.60949441E-01 -6.68141127E-03
  7.97498992E-02  6.32546999E-02  3.82933939E-02 -9.35212160E-02  2.40861248E-02
 -2.10993212E-01 -4.24635985E-02 -3.76548616E-02 -6.47665270E-03 -8.55906284E-02
 -8.86689337E-02  7.78175228E-02 -6.48592131E-02  1.14225304E-01  2.36870810E-01
  4.30486635E-02 -4.22183227E-02  3.38597866E-02 -8.76596689E-02 -1.04783563E-01
  5.28425827E-02  1.32702370E-01 -1.31344327E-01  3.11630144E-02 -2.27978343E-03
  3.69820594E-02 -1.67869016E-01 -3.49591819E-02 -1.37369100E-02 -3.85287488E-02
  1.42665826E-01  7.16299313E-02  2.00495487E-01  4.64242870E-02  3.52050897E-02
  3.54934249E-02  1.47633833E-02 -1.31677973E-01 -1.69522346E-02 -6.17938424E-02
 -1.40507682E-01  3.92652288E-02 -6.30342249E-02 -2.36692871E-02  6.50918007E-02
  2.67705153E-02 -5.37186034E-02 -1.22727452E-02  5.58813171E-02  1.65885828E-01
 -6.41875138E-03 -6.66927613E-03 -1.84285874E-02 -1.59690065E-01 -1.17450725E-02
 -1.54145639E-01 -7.97918401E-02 -3.24380432E-04 -1.28592711E-02  1.75262626E-01
  5.09312832E-02 -8.82436413E-03  2.82715901E-02  8.55798834E-02  1.08554691E-01
 -6.44607548E-02  3.43769304E-02 -1.14317724E-02 -1.65755822E-01 -7.12145223E-02
  2.12867478E-02 -5.97639568E-02  8.79432588E-03 -3.02808883E-01 -4.02199343E-02
 -3.36274960E-01 -4.80613153E-01  7.08891021E-02 -3.32764325E-02 -3.07187574E-02
  4.96742360E-01 -1.87825807E-02  4.00692189E-02  7.28697700E-02 -1.27374369E-01
 -5.06317351E-02  3.25321308E-01  4.46352663E-02  5.28825747E-02  4.30636315E-02
 -7.88069466E-02 -2.50245680E-01  1.97533480E-03 -1.00414040E-01 -2.49117757E-01
  1.79078203E-01 -7.99469085E-02  2.19274609E-02  1.44634411E-01  9.41265313E-02
 -1.18870494E-01  4.69082874E-03  2.08011816E-01  1.74416496E-01 -2.66307766E-02
  2.56570022E-02 -7.44561872E-02 -1.95396557E-01 -6.41459188E-03 -1.19671010E-01
 -1.89639747E-01  3.26622518E-02 -5.31235770E-03  1.81886076E-01  1.31546580E-01
  3.09157155E-03  1.19477664E-01  1.14280996E-01  1.63230771E-01 -2.39215038E-02
  5.32180168E-03  3.97971609E-02 -2.06290568E-01 -1.08053889E-01  8.71934278E-03
 -1.19215660E-01 -1.27908878E-02  2.24392683E-01  1.04007272E-02  1.05802588E-01
  3.88924345E-01 -2.24154791E-02  1.29232050E-02 -5.22106650E-03 -2.61919441E-01
  2.18982436E-02 -1.54620694E-02 -2.42135522E-02 -1.73350158E-01 -6.82246773E-02
 -1.68548400E-01 -4.46201362E-03 -2.33896169E-02 -1.44383530E-02  8.10503543E-02
  1.35637396E-01 -1.51516665E-02  4.21374331E-02  1.14499332E-01 -1.36483425E-01
  1.28013624E-02 -7.40616624E-02 -9.31179747E-02 -7.48738209E-02  7.75417018E-02
 -3.30071879E-02 -1.20517094E-01  5.19171015E-02  1.31111142E-03 -8.82820256E-02
  2.32810131E-01  1.69177913E-01 -2.20214917E-02 -2.08144440E-01 -2.37121991E-01
  1.14198509E-01 -4.91462258E-02 -9.04014802E-02  2.86642998E-01  4.57048046E-02
  3.15137755E-01  1.82395707E-02  2.60225352E-01  1.22729908E-01 -1.25237453E-01
  6.51596130E-02 -2.24051911E-01 -1.01328874E-01 -5.10356375E-02 -1.99234881E-01
  1.01979237E-01 -2.28715827E-01  5.63065456E-03  2.54201759E-01 -1.85866133E-01
 -3.19033725E-02  4.37790367E-03  5.35614401E-02 -2.33642027E-01 -5.64121760E-02
  1.35445721E-03  3.32887906E-02 -1.79079787E-01 -8.62504083E-02  1.93646330E-01
 -9.47354583E-03  2.17052792E-02 -4.54970833E-03 -1.36522156E-01 -1.39607829E-01
  3.12129708E-02 -7.17763851E-02 -4.89295079E-02  2.70472782E-01  2.78839319E-02
 -2.73420854E-02  3.58587029E-02  1.59127079E-01 -2.36682876E-02 -2.34691918E-02
 -8.62406065E-04 -1.29833483E-01 -7.74341397E-02 -2.11511844E-01 -1.78347816E-02
  2.08688463E-01 -6.61243510E-02 -2.01756425E-01  2.35026069E-02  4.09997671E-01
  1.88634797E-02  5.32817446E-02 -6.65632547E-03  3.21333986E-01  6.22641965E-03
  3.02087029E-02 -1.41937178E-01  1.52844786E-01  1.74262814E-01 -2.77757587E-01
  8.97960660E-02  2.51740208E-01  6.64174048E-02  1.06384596E-01  8.47893488E-02
 -1.50652460E-01 -7.06950980E-03  1.51581368E-01 -1.64496747E-01 -3.89348418E-02
  7.92328594E-03  4.05234829E-02 -1.29914735E-01 -3.94287346E-02  3.91399543E-03
  3.46458291E-02  1.98006462E-01 -8.09332286E-04  8.59661399E-02 -1.07994146E-02
  5.89190333E-03  3.57629748E-03 -5.82346316E-02 -6.44835365E-02  8.55482527E-03
 -7.77343461E-03 -7.85961846E-03  9.58786085E-02 -4.70441696E-03  9.69957099E-02
 -6.40250837E-03  5.85661717E-02  1.16396649E-03  6.42084034E-02 -3.88954172E-02
 -1.18704872E-01 -8.09402962E-02  8.81968979E-02  2.54034979E-02 -1.92012090E-03
 -1.08206533E-01  2.58956023E-01 -4.33704199E-02 -4.75150599E-02 -3.08764035E-01
 -1.74751366E-01  3.87258594E-01 -1.11420457E-01  4.35040197E-01  8.31969841E-03