 Entering Gaussian System, Link 0=g16
 Input=NCCONCCOCCCNCCOCCCNCCOCCNCCNNCCONCCOCCCNCCOCOCNCCOCOCNCCOCCCNCCOCO_12.gjf
 Output=NCCONCCOCCCNCCOCCCNCCOCCNCCNNCCONCCOCCCNCCOCOCNCCOCOCNCCOCCCNCCOCO_12.log
 Initial command:
 /work/01114/jfonner/frontera/gaussian/16rC.01/g16/l1.exe "/scratch1/08249/sa748948/lsqc/26989325/Gau-46156.inp" -scrdir="/scratch1/08249/sa748948/lsqc/26989325/"
 Entering Link 1 = /work/01114/jfonner/frontera/gaussian/16rC.01/g16/l1.exe PID=     46158.
  
 Copyright (c) 1988-2019, Gaussian, Inc.  All Rights Reserved.
  
 This is part of the Gaussian(R) 16 program.  It is based on
 the Gaussian(R) 09 system (copyright 2009, Gaussian, Inc.),
 the Gaussian(R) 03 system (copyright 2003, Gaussian, Inc.),
 the Gaussian(R) 98 system (copyright 1998, Gaussian, Inc.),
 the Gaussian(R) 94 system (copyright 1995, Gaussian, Inc.),
 the Gaussian 92(TM) system (copyright 1992, Gaussian, Inc.),
 the Gaussian 90(TM) system (copyright 1990, Gaussian, Inc.),
 the Gaussian 88(TM) system (copyright 1988, Gaussian, Inc.),
 the Gaussian 86(TM) system (copyright 1986, Carnegie Mellon
 University), and the Gaussian 82(TM) system (copyright 1983,
 Carnegie Mellon University). Gaussian is a federally registered
 trademark of Gaussian, Inc.
  
 This software contains proprietary and confidential information,
 including trade secrets, belonging to Gaussian, Inc.
  
 This software is provided under written license and may be
 used, copied, transmitted, or stored only in accord with that
 written license.
  
 The following legend is applicable only to US Government
 contracts under FAR:
  
                    RESTRICTED RIGHTS LEGEND
  
 Use, reproduction and disclosure by the US Government is
 subject to restrictions as set forth in subparagraphs (a)
 and (c) of the Commercial Computer Software - Restricted
 Rights clause in FAR 52.227-19.
  
 Gaussian, Inc.
 340 Quinnipiac St., Bldg. 40, Wallingford CT 06492
  
  
 ---------------------------------------------------------------
 Warning -- This program may not be used in any manner that
 competes with the business of Gaussian, Inc. or will provide
 assistance to any competitor of Gaussian, Inc.  The licensee
 of this program is prohibited from giving any competitor of
 Gaussian, Inc. access to this program.  By using this program,
 the user acknowledges that Gaussian, Inc. is engaged in the
 business of creating and licensing software in the field of
 computational chemistry and represents and warrants to the
 licensee that it is not a competitor of Gaussian, Inc. and that
 it will not use this program in any manner prohibited above.
 ---------------------------------------------------------------
  

 Cite this work as:
 Gaussian 16, Revision C.01,
 M. J. Frisch, G. W. Trucks, H. B. Schlegel, G. E. Scuseria, 
 M. A. Robb, J. R. Cheeseman, G. Scalmani, V. Barone, 
 G. A. Petersson, H. Nakatsuji, X. Li, M. Caricato, A. V. Marenich, 
 J. Bloino, B. G. Janesko, R. Gomperts, B. Mennucci, H. P. Hratchian, 
 J. V. Ortiz, A. F. Izmaylov, J. L. Sonnenberg, D. Williams-Young, 
 F. Ding, F. Lipparini, F. Egidi, J. Goings, B. Peng, A. Petrone, 
 T. Henderson, D. Ranasinghe, V. G. Zakrzewski, J. Gao, N. Rega, 
 G. Zheng, W. Liang, M. Hada, M. Ehara, K. Toyota, R. Fukuda, 
 J. Hasegawa, M. Ishida, T. Nakajima, Y. Honda, O. Kitao, H. Nakai, 
 T. Vreven, K. Throssell, J. A. Montgomery, Jr., J. E. Peralta, 
 F. Ogliaro, M. J. Bearpark, J. J. Heyd, E. N. Brothers, K. N. Kudin, 
 V. N. Staroverov, T. A. Keith, R. Kobayashi, J. Normand, 
 K. Raghavachari, A. P. Rendell, J. C. Burant, S. S. Iyengar, 
 J. Tomasi, M. Cossi, J. M. Millam, M. Klene, C. Adamo, R. Cammi, 
 J. W. Ochterski, R. L. Martin, K. Morokuma, O. Farkas, 
 J. B. Foresman, and D. J. Fox, Gaussian, Inc., Wallingford CT, 2019.
 
 ******************************************
 Gaussian 16:  ES64L-G16RevC.01  3-Jul-2019
                 7-Jan-2022 
 ******************************************
 %chk=NCCONCCOCCCNCCOCCCNCCOCCNCCNNCCONCCOCCCNCCOCOCNCCOCOCNCCOCCCNCCOCO_12.chk
 %nproc=56
 Will use up to   56 processors via shared memory.
 %mem=3gb
 ---------------------------------
 #p int=acc2e=12 pm6 charge nosymm
 ---------------------------------
 1/18=10,28=-2,38=1,125=101,172=1/1;
 2/12=2,15=1,17=6,18=5,40=1/2;
 3/5=2,25=1,27=12,41=3900000/1,2,3;
 4/35=1/1;
 5/5=2,35=1,38=5,87=12/2;
 6/7=2,8=2,9=2,10=2,28=1,87=12/1;
 99/5=1,9=1/99;
 Leave Link    1 at Fri Jan  7 12:01:02 2022, MaxMem=   402653184 cpu:               2.8 elap:               0.8
 (Enter /work/01114/jfonner/frontera/gaussian/16rC.01/g16/l101.exe)
 --------------
 Atom number=19
 --------------
 Symbolic Z-matrix:
 Charge =  1 Multiplicity = 1
 c                     3.424     0.96499   17.63099 
 o                     3.136     2.11      17.61199 
 n                     3.173     0.129     18.647 
 c                     2.559     0.51601   19.90301 
 c                     3.34999  -0.12201   21.01401 
 o                     3.366    -1.33901   21.14 
 n                     4.067     0.68799   21.76799 
 c                     4.888     0.205     22.851 
 c                     4.35001   0.76901   24.17399 
 o                     4.16101   1.98101   24.26899 
 n                     4.06501  -0.11998   25.15099 
 c                     3.72001   0.31301   26.51501 
 c                     1.13798  -0.021     19.98301 
 o                     0.393     0.39401   18.824 
 c                     0.486     0.501     21.167 
 h                     3.94674   0.55968   16.78994 
 h                     5.91043   0.48869   22.71297 
 h                     4.5741    0.19198   27.14808 
 h                     2.86416  -0.20219   26.89841 
 
 ITRead=  0  0  0  0  0  0  0  0  0  0  0  0  0  0  0  0  0  0  0
 MicOpt= -1 -1 -1 -1 -1 -1 -1 -1 -1 -1 -1 -1 -1 -1 -1 -1 -1 -1 -1
 NAtoms=     19 NQM=       19 NQMF=       0 NMMI=      0 NMMIF=      0
                NMic=       0 NMicF=      0.
                    Isotopes and Nuclear Properties:
 (Nuclear quadrupole moments (NQMom) in fm**2, nuclear magnetic moments (NMagM)
  in nuclear magnetons)

  Atom         1           2           3           4           5           6           7           8           9          10
 IAtWgt=          12          16          14          12          12          16          14          12          12          16
 AtmWgt=  12.0000000  15.9949146  14.0030740  12.0000000  12.0000000  15.9949146  14.0030740  12.0000000  12.0000000  15.9949146
 NucSpn=           0           0           2           0           0           0           2           0           0           0
 AtZEff=  -0.0000000  -0.0000000  -0.0000000  -0.0000000  -0.0000000  -0.0000000  -0.0000000  -0.0000000  -0.0000000  -0.0000000
 NQMom=    0.0000000   0.0000000   2.0440000   0.0000000   0.0000000   0.0000000   2.0440000   0.0000000   0.0000000   0.0000000
 NMagM=    0.0000000   0.0000000   0.4037610   0.0000000   0.0000000   0.0000000   0.4037610   0.0000000   0.0000000   0.0000000
 AtZNuc=   6.0000000   8.0000000   7.0000000   6.0000000   6.0000000   8.0000000   7.0000000   6.0000000   6.0000000   8.0000000

  Atom        11          12          13          14          15          16          17          18          19
 IAtWgt=          14          12          12          16          12           1           1           1           1
 AtmWgt=  14.0030740  12.0000000  12.0000000  15.9949146  12.0000000   1.0078250   1.0078250   1.0078250   1.0078250
 NucSpn=           2           0           0           0           0           1           1           1           1
 AtZEff=  -0.0000000  -0.0000000  -0.0000000  -0.0000000  -0.0000000  -0.0000000  -0.0000000  -0.0000000  -0.0000000
 NQMom=    2.0440000   0.0000000   0.0000000   0.0000000   0.0000000   0.0000000   0.0000000   0.0000000   0.0000000
 NMagM=    0.4037610   0.0000000   0.0000000   0.0000000   0.0000000   2.7928460   2.7928460   2.7928460   2.7928460
 AtZNuc=   7.0000000   6.0000000   6.0000000   8.0000000   6.0000000   1.0000000   1.0000000   1.0000000   1.0000000
 Background charge distribution read from input stream:
 Point Charges:
 XYZ=   -6.8150   -0.6680    1.6070 Q=    0.1840 A=    0.0000 R=    0.0000 C=    0.0000
 XYZ=   -5.7140    0.0020    2.3730 Q=    0.1690 A=    0.0000 R=    0.0000 C=    0.0000
 XYZ=   -4.3570   -0.6730    2.5880 Q=    0.1957 A=    0.0000 R=    0.0000 C=    0.0000
 XYZ=   -4.2120   -1.8700    2.4920 Q=   -0.4612 A=    0.0000 R=    0.0000 C=    0.0000
 XYZ=   -3.3810    0.1250    2.9530 Q=   -0.3003 A=    0.0000 R=    0.0000 C=    0.0000
 XYZ=   -2.0620   -0.3900    3.2740 Q=    0.2639 A=    0.0000 R=    0.0000 C=    0.0000
 XYZ=   -1.6360    0.1750    4.6000 Q=    0.1489 A=    0.0000 R=    0.0000 C=    0.0000
 XYZ=   -1.7440    1.3560    4.8620 Q=   -0.3095 A=    0.0000 R=    0.0000 C=    0.0000
 XYZ=   -0.9930   -0.0450    2.1970 Q=   -1.2213 A=    0.0000 R=    0.0000 C=    0.0000
 XYZ=    0.3900   -0.4880    2.6400 Q=    0.9359 A=    0.0000 R=    0.0000 C=    0.0000
 XYZ=   -1.3780   -0.6620    0.8970 Q=    0.8742 A=    0.0000 R=    0.0000 C=    0.0000
 XYZ=   -1.0950   -0.7000    5.4150 Q=   -0.4278 A=    0.0000 R=    0.0000 C=    0.0000
 XYZ=   -0.5720   -0.3110    6.6690 Q=    0.2444 A=    0.0000 R=    0.0000 C=    0.0000
 XYZ=    0.8400   -0.8540    6.7920 Q=    0.2936 A=    0.0000 R=    0.0000 C=    0.0000
 XYZ=    1.0270   -2.0220    6.7200 Q=   -0.4614 A=    0.0000 R=    0.0000 C=    0.0000
 XYZ=   -1.4110   -0.9130    7.7970 Q=   -1.2094 A=    0.0000 R=    0.0000 C=    0.0000
 XYZ=   -0.7270   -0.6450    9.1230 Q=    0.9838 A=    0.0000 R=    0.0000 C=    0.0000
 XYZ=   -2.8000   -0.3490    7.7890 Q=    0.9737 A=    0.0000 R=    0.0000 C=    0.0000
 XYZ=    1.8100    0.0020    7.0230 Q=   -0.6094 A=    0.0000 R=    0.0000 C=    0.0000
 XYZ=    3.1910   -0.4290    7.1010 Q=   -0.0383 A=    0.0000 R=    0.0000 C=    0.0000
 XYZ=    3.9110    0.2580    8.2290 Q=    0.2652 A=    0.0000 R=    0.0000 C=    0.0000
 XYZ=    4.0640    1.4780    8.2280 Q=   -0.5489 A=    0.0000 R=    0.0000 C=    0.0000
 XYZ=    3.8710   -0.1030    5.7480 Q=    0.4467 A=    0.0000 R=    0.0000 C=    0.0000
 XYZ=    5.2470   -0.6430    5.5810 Q=   -0.4177 A=    0.0000 R=    0.0000 C=    0.0000
 XYZ=    5.8610   -0.6890    4.3530 Q=   -0.2968 A=    0.0000 R=    0.0000 C=    0.0000
 XYZ=    6.1080   -1.1970    6.4480 Q=    0.2630 A=    0.0000 R=    0.0000 C=    0.0000
 XYZ=    7.0590   -1.2270    4.4820 Q=    0.6103 A=    0.0000 R=    0.0000 C=    0.0000
 XYZ=    7.2390   -1.5230    5.7510 Q=   -0.3347 A=    0.0000 R=    0.0000 C=    0.0000
 XYZ=    4.3640   -0.5270    9.1890 Q=   -0.5070 A=    0.0000 R=    0.0000 C=    0.0000
 XYZ=    5.0670    0.0200   10.3260 Q=    0.3996 A=    0.0000 R=    0.0000 C=    0.0000
 XYZ=    4.2710    0.8170   11.2960 Q=    0.1621 A=    0.0000 R=    0.0000 C=    0.0000
 XYZ=    4.3590    2.0330   11.3670 Q=   -0.2980 A=    0.0000 R=    0.0000 C=    0.0000
 XYZ=    3.4920    0.1040   12.0730 Q=   -0.4667 A=    0.0000 R=    0.0000 C=    0.0000
 XYZ=    2.5850    0.6770   13.0850 Q=    0.2746 A=    0.0000 R=    0.0000 C=    0.0000
 XYZ=    3.0060    0.0470   14.3610 Q=    0.2391 A=    0.0000 R=    0.0000 C=    0.0000
 XYZ=    2.9580   -1.1690   14.5150 Q=   -0.4626 A=    0.0000 R=    0.0000 C=    0.0000
 XYZ=    1.1270    0.3300   12.8270 Q=   -1.2217 A=    0.0000 R=    0.0000 C=    0.0000
 XYZ=    0.2480    0.6750   14.0380 Q=    0.9822 A=    0.0000 R=    0.0000 C=    0.0000
 XYZ=    0.6740    1.0470   11.5960 Q=    0.9278 A=    0.0000 R=    0.0000 C=    0.0000
 XYZ=    3.4810    0.8870   15.2620 Q=   -0.6284 A=    0.0000 R=    0.0000 C=    0.0000
 XYZ=    4.1630    0.3920   16.4420 Q=    0.1821 A=    0.0000 R=    0.0000 C=    0.0000
 XYZ=    5.6880    0.7500   16.3890 Q=   -0.3175 A=    0.0000 R=    0.0000 C=    0.0000
 XYZ=    6.2640    0.1300   15.2360 Q=   -0.3082 A=    0.0000 R=    0.0000 C=    0.0000
 XYZ=    6.4200    0.2100   17.5690 Q=    0.9463 A=    0.0000 R=    0.0000 C=    0.0000
 XYZ=    6.3620    0.6140   22.6520 Q=   -1.1933 A=    0.0000 R=    0.0000 C=    0.0000
 XYZ=    7.1520    0.2970   23.8740 Q=    0.8585 A=    0.0000 R=    0.0000 C=    0.0000
 XYZ=    6.9530   -0.1210   21.4550 Q=    0.9590 A=    0.0000 R=    0.0000 C=    0.0000
 XYZ=    4.9410    0.1400   27.4200 Q=    0.0549 A=    0.0000 R=    0.0000 C=    0.0000
 XYZ=    5.7140   -0.8090   27.2870 Q=   -0.0565 A=    0.0000 R=    0.0000 C=    0.0000
 XYZ=    2.4990   -0.4220   27.0620 Q=    1.1023 A=    0.0000 R=    0.0000 C=    0.0000
 XYZ=    5.2500    0.9550   28.2940 Q=    0.3115 A=    0.0000 R=    0.0000 C=    0.0000
 Pt Chg Charge=              2.1557 electrons
 Pt Chg Dipole moment (Debye):
    X=             23.2557    Y=             -1.3267    Z=            259.0345  Tot=            260.0797
 Pt Chg Quadrupole moment (Debye-Ang):
   XX=            350.0160   YY=            -27.1465   ZZ=           6990.4178
   XY=            -37.7447   XZ=            995.8440   YZ=            -21.6202
 Pt Chg Traceless Quadrupole moment (Debye-Ang):
   XX=          -2087.7464   YY=          -2464.9089   ZZ=           4552.6554
   XY=            -37.7447   XZ=            995.8440   YZ=            -21.6202
 Pt Chg Octapole moment (Debye-Ang**2):
  XXX=           1985.4225  YYY=             16.3348  ZZZ=         183225.2623  XYY=            -33.9049
  XXY=           -176.5010  XXZ=           7448.4027  XZZ=          28723.7596  YZZ=           -968.5368
  YYZ=           -193.8135  XYZ=           -448.2544
 Pt Chg Hexadecapole moment (Debye-Ang**3):
 XXXX=          20746.3483 YYYY=           -106.9475 ZZZZ=        4801373.1365 XXXY=          -1095.4401
 XXXZ=          51160.8853 YYYX=           -122.1024 YYYZ=             52.4287 ZZZX=         762193.1857
 ZZZY=         -27260.1705 XXYY=           -388.8175 XXZZ=         180045.3175 YYZZ=          -1189.1455
 XXYZ=          -2187.3038 YYXZ=           -652.2956 ZZXY=          -6709.9149
 Leave Link  101 at Fri Jan  7 12:01:03 2022, MaxMem=   402653184 cpu:               6.8 elap:               1.7
 (Enter /work/01114/jfonner/frontera/gaussian/16rC.01/g16/l202.exe)
                          Input orientation:                          
 ---------------------------------------------------------------------
 Center     Atomic      Atomic             Coordinates (Angstroms)
 Number     Number       Type             X           Y           Z
 ---------------------------------------------------------------------
      1          6           0        3.424000    0.964988   17.630990
      2          8           0        3.136003    2.109999   17.611994
      3          7           0        3.173005    0.128997   18.646999
      4          6           0        2.559005    0.516008   19.903015
      5          6           0        3.349988   -0.122005   21.014006
      6          8           0        3.366002   -1.339011   21.139999
      7          7           0        4.066999    0.687993   21.767989
      8          6           0        4.888004    0.204996   22.850999
      9          6           0        4.350006    0.769010   24.173991
     10          8           0        4.161012    1.981015   24.268993
     11          7           0        4.065009   -0.119983   25.150991
     12          6           0        3.720007    0.313006   26.515009
     13          6           0        1.137983   -0.021002   19.983013
     14          8           0        0.392999    0.394012   18.823998
     15          6           0        0.485998    0.501003   21.167001
     16          1           0        3.946741    0.559675   16.789941
     17          1           0        5.910435    0.488692   22.712967
     18          1           0        4.574102    0.191979   27.148076
     19          1           0        2.864158   -0.202189   26.898412
 ---------------------------------------------------------------------
                    Distance matrix (angstroms):
                    1          2          3          4          5
     1  C    0.000000
     2  O    1.180828   0.000000
     3  N    1.339460   2.235392   0.000000
     4  C    2.472224   2.850002   1.450637   0.000000
     5  C    3.554128   4.074472   2.386848   1.505662   0.000000
     6  O    4.198203   4.939169   2.899541   2.371175   1.223615
     7  N    4.195823   4.490117   3.294279   2.404528   1.318595
     8  C    5.474430   5.843433   4.540992   3.769824   2.418050
     9  C    6.611108   6.806751   5.687054   4.638204   3.432120
    10  O    6.755632   6.736684   6.001078   4.875903   3.959216
    11  N    7.624858   7.916587   6.569594   5.496707   4.198321
    12  C    8.912827   9.101314   7.889147   6.716220   5.530568
    13  C    3.424917   3.762311   2.439005   1.521211   2.442563
    14  O    3.307000   3.455089   2.798213   2.422961   3.715668
    15  C    4.620661   4.716935   3.702540   2.428012   2.934959
    16  H    1.070000   1.933021   2.057381   3.408657   4.320130
    17  H    5.677649   6.028767   4.914773   4.373632   3.132939
    18  H    9.617442   9.832791   8.615993   7.527053   6.262895
    19  H    9.357394   9.573801   8.263829   7.038786   5.904971
                    6          7          8          9         10
     6  O    0.000000
     7  N    2.234841   0.000000
     8  C    2.761878   1.442305   0.000000
     9  C    3.823235   2.423943   1.535533   0.000000
    10  O    4.630898   2.817049   2.386099   1.230325   0.000000
    11  N    4.250023   3.478151   2.464325   1.351319   2.280642
    12  C    5.634289   4.774434   3.847188   2.466821   2.832195
    13  C    2.835459   3.502563   4.726423   5.339055   5.613946
    14  O    4.148008   4.717179   6.038007   6.664904   6.809145
    15  C    3.417718   3.635893   4.722407   4.903506   5.031750
    16  H    4.781764   4.981153   6.143956   7.398016   7.615926
    17  H    3.505548   2.081096   1.070000   2.155947   2.776459
    18  H    6.316679   5.426649   4.308547   3.037822   3.414734
    19  H    5.890970   5.344201   4.543490   3.251683   3.655414
                   11         12         13         14         15
    11  N    0.000000
    12  C    1.472091   0.000000
    13  C    5.940141   7.031741   0.000000
    14  O    7.333395   8.380166   1.438941   0.000000
    15  C    5.391393   6.252627   1.448931   2.347287   0.000000
    16  H    8.389462   9.730838   4.292087   4.098038   5.580218
    17  H    3.117699   4.391397   5.521660   6.750936   5.640450
    18  H    2.084429   1.070000   7.949239   9.317334   7.251300
    19  H    2.121857   1.070000   7.129884   8.465118   6.244933
                   16         17         18         19
    16  H    0.000000
    17  H    6.240462   0.000000
    18  H   10.383628   4.641553   0.000000
    19  H   10.194783   5.222553   1.772459   0.000000
 Symmetry turned off by external request.
 Stoichiometry    C8H4N3O4(1+)
 Framework group  C1[X(C8H4N3O4)]
 Deg. of freedom    51
 Full point group                 C1      NOp   1
 Rotational constants (GHZ):           1.2195248           0.2872046           0.2661753
 Leave Link  202 at Fri Jan  7 12:01:04 2022, MaxMem=   402653184 cpu:               4.7 elap:               0.8
 (Enter /work/01114/jfonner/frontera/gaussian/16rC.01/g16/l301.exe)
 Standard basis: VSTO-6G (5D, 7F)
 Ernie: Thresh=  0.10000D-02 Tol=  0.10000D-05 Strict=F.
  NNHCO=     0 NNPyr=     0 NCTC=     0               EPep=         0.000000000
    EC=       385.456251601  ECS=         4.584428907   EG=         0.404196298
   EHC=         0.001690317  EAt=       -97.016880044  AtH=         3.430647804
 EPDDG=         0.000000000  ECC=       390.446567123 EAtT=       100.447527848
    64 basis functions,   384 primitive gaussians,    64 cartesian basis functions
    37 alpha electrons       37 beta electrons
       nuclear repulsion energy       490.8940949709 Hartrees.
 IExCor=    0 DFT=F Ex=HF Corr=None ExCW=0 ScaHFX=  1.000000
 ScaDFX=  1.000000  1.000000  1.000000  1.000000 ScalE2=  1.000000  1.000000
 IRadAn=      5 IRanWt=     -1 IRanGd=            0 ICorTp=0 IEmpDi=  4
 Integral buffers will be    131072 words long.
 Regular integral format.
 Two-electron integral symmetry is turned off.
 Background charge distribution read from rwf.
 PtFMM for NChg=        70 BoxLen=    40.00 Levels= 1 LMax=20 SMax=    51.8 ICnFMM=     1:
 Self energy of the charges =        -3.3053837948 a.u.
 MM   energy of the charges =         0.0000000000 a.u.
 Nuclei-charges interaction =        15.7708885955 a.u.
 Nuclear repulsion after external point charges =      503.3595997715 Hartrees.
 Leave Link  301 at Fri Jan  7 12:01:05 2022, MaxMem=   402653184 cpu:               5.6 elap:               1.1
 (Enter /work/01114/jfonner/frontera/gaussian/16rC.01/g16/l302.exe)
 Do NDO integrals.
 NPDir=0 NMtPBC=     1 NCelOv=     1 NCel=       1 NClECP=     1 NCelD=      1
         NCelK=      1 NCelE2=     1 NClLst=     1 CellRange=     0.0.
 One-electron integrals computed using PRISM.
 NBasis=    64 RedAO= F EigKep=  0.00D+00  NBF=    64
 NBsUse=    64 1.00D-04 EigRej=  0.00D+00 NBFU=    64
 Leave Link  302 at Fri Jan  7 12:01:11 2022, MaxMem=   402653184 cpu:              27.4 elap:               5.5
 (Enter /work/01114/jfonner/frontera/gaussian/16rC.01/g16/l303.exe)
 DipDrv:  MaxL=1.
 Leave Link  303 at Fri Jan  7 12:01:12 2022, MaxMem=   402653184 cpu:               3.5 elap:               0.7
 (Enter /work/01114/jfonner/frontera/gaussian/16rC.01/g16/l401.exe)
 Simple Huckel Guess.
 JPrj=0 DoOrth=F DoCkMO=F.
 Leave Link  401 at Fri Jan  7 12:01:13 2022, MaxMem=   402653184 cpu:              11.6 elap:               1.6
 (Enter /work/01114/jfonner/frontera/gaussian/16rC.01/g16/l502.exe)
 Keep J ints in memory in canonical form, NReq=871924.
 FoFCou: FMM=F IPFlag=           0 FMFlag=           0 FMFlg1=           0
         NFxFlg=           0 DoJE=F BraDBF=F KetDBF=F FulRan=T
         wScrn=  0.000000 ICntrl=       600 IOpCl=  2 I1Cent=           0 NGrid=           0
         NMat0=    1 NMatS0=    154 NMatT0=    0 NMatD0=    1 NMtDS0=    0 NMtDT0=    0
 Symmetry not used in FoFCou.
 Two-electron integral symmetry not used.
 Closed shell SCF:
 Using DIIS extrapolation, IDIIS=  1040.
 Overlap will be assumed to be unity.
 NGot=   402653184 LenX=   402569123 LenY=   402564586
 Requested convergence on RMS density matrix=1.00D-08 within 128 cycles.
 Requested convergence on MAX density matrix=1.00D-06.
 Requested convergence on             energy=1.00D-06.
 No special actions if energy rises.

 Cycle   1  Pass 1  IDiag  1:
 E=-0.991159029299752    
 DIIS: error= 8.17D-02 at cycle   1 NSaved=   1.
 NSaved= 1 IEnMin= 1 EnMin=-0.991159029299752     IErMin= 1 ErrMin= 8.17D-02
 ErrMax= 8.17D-02  0.00D+00 EMaxC= 1.00D-01 BMatC= 2.67D-01 BMatP= 2.67D-01
 IDIUse=3 WtCom= 1.83D-01 WtEn= 8.17D-01
 Coeff-Com:  0.100D+01
 Coeff-En:   0.100D+01
 Coeff:      0.100D+01
 GapD=    2.000 DampG=2.000 DampE=0.500 DampFc=1.0000 IDamp=-1.
 RMSDP=2.94D-02 MaxDP=6.20D-01              OVMax= 0.00D+00

 Cycle   2  Pass 1  IDiag  1:
 E= -1.37255457501993     Delta-E=       -0.381395545720 Rises=F Damp=F
 DIIS: error= 5.00D-02 at cycle   2 NSaved=   2.
 NSaved= 2 IEnMin= 2 EnMin= -1.37255457501993     IErMin= 2 ErrMin= 5.00D-02
 ErrMax= 5.00D-02  0.00D+00 EMaxC= 1.00D-01 BMatC= 1.32D-01 BMatP= 2.67D-01
 IDIUse=3 WtCom= 5.00D-01 WtEn= 5.00D-01
 Coeff-Com:  0.281D+00 0.719D+00
 Coeff-En:   0.216D+00 0.784D+00
 Coeff:      0.248D+00 0.752D+00
 RMSDP=3.28D-02 MaxDP=6.47D-01 DE=-3.81D-01 OVMax= 0.00D+00

 Cycle   3  Pass 1  IDiag  1:
 E=-0.820561691852731     Delta-E=        0.551992883167 Rises=F Damp=F
 DIIS: error= 2.89D-02 at cycle   3 NSaved=   3.
 NSaved= 3 IEnMin= 2 EnMin= -1.37255457501993     IErMin= 3 ErrMin= 2.89D-02
 ErrMax= 2.89D-02  0.00D+00 EMaxC= 1.00D-01 BMatC= 1.33D-01 BMatP= 1.32D-01
 IDIUse=3 WtCom= 7.11D-01 WtEn= 2.89D-01
 Coeff-Com:  0.444D-01 0.478D+00 0.478D+00
 Coeff-En:   0.000D+00 0.603D+00 0.397D+00
 Coeff:      0.315D-01 0.514D+00 0.454D+00
 RMSDP=3.18D-02 MaxDP=5.93D-01 DE= 5.52D-01 OVMax= 0.00D+00

 Cycle   4  Pass 1  IDiag  1:
 E= -1.78651872797616     Delta-E=       -0.965957036123 Rises=F Damp=F
 DIIS: error= 2.14D-02 at cycle   4 NSaved=   4.
 NSaved= 4 IEnMin= 4 EnMin= -1.78651872797616     IErMin= 4 ErrMin= 2.14D-02
 ErrMax= 2.14D-02  0.00D+00 EMaxC= 1.00D-01 BMatC= 4.53D-02 BMatP= 1.32D-01
 IDIUse=3 WtCom= 7.86D-01 WtEn= 2.14D-01
 Coeff-Com: -0.261D-01-0.132D+00 0.343D+00 0.815D+00
 Coeff-En:   0.000D+00 0.000D+00 0.298D+00 0.702D+00
 Coeff:     -0.205D-01-0.104D+00 0.334D+00 0.791D+00
 RMSDP=2.25D-02 MaxDP=4.34D-01 DE=-9.66D-01 OVMax= 0.00D+00

 Cycle   5  Pass 1  IDiag  1:
 E= -2.28791651779329     Delta-E=       -0.501397789817 Rises=F Damp=F
 DIIS: error= 1.57D-02 at cycle   5 NSaved=   5.
 NSaved= 5 IEnMin= 5 EnMin= -2.28791651779329     IErMin= 5 ErrMin= 1.57D-02
 ErrMax= 1.57D-02  0.00D+00 EMaxC= 1.00D-01 BMatC= 1.38D-02 BMatP= 4.53D-02
 IDIUse=3 WtCom= 8.43D-01 WtEn= 1.57D-01
 Coeff-Com: -0.613D-01 0.534D-01 0.362D-01 0.287D+00 0.685D+00
 Coeff-En:   0.000D+00 0.000D+00 0.000D+00 0.404D-02 0.996D+00
 Coeff:     -0.517D-01 0.450D-01 0.305D-01 0.242D+00 0.734D+00
 RMSDP=3.81D-03 MaxDP=5.07D-02 DE=-5.01D-01 OVMax= 0.00D+00

 Cycle   6  Pass 1  IDiag  3:
 E= -2.33874236734107     Delta-E=       -0.050825849548 Rises=F Damp=F
 DIIS: error= 4.91D-03 at cycle   6 NSaved=   6.
 NSaved= 6 IEnMin= 6 EnMin= -2.33874236734107     IErMin= 6 ErrMin= 4.91D-03
 ErrMax= 4.91D-03  0.00D+00 EMaxC= 1.00D-01 BMatC= 4.45D-03 BMatP= 1.38D-02
 IDIUse=3 WtCom= 9.51D-01 WtEn= 4.91D-02
 Coeff-Com: -0.140D-01-0.915D-02-0.288D-01 0.182D+00-0.282D+00 0.115D+01
 Coeff-En:   0.000D+00 0.000D+00 0.000D+00 0.000D+00 0.000D+00 0.100D+01
 Coeff:     -0.133D-01-0.870D-02-0.274D-01 0.173D+00-0.268D+00 0.114D+01
 Gap=     0.146 Goal=   None    Shift=    0.000
 RMSDP=1.99D-03 MaxDP=1.43D-02 DE=-5.08D-02 OVMax= 2.84D-02

 Cycle   7  Pass 1  IDiag  3:
 E= -2.35453050925634     Delta-E=       -0.015788141915 Rises=F Damp=F
 DIIS: error= 4.03D-03 at cycle   7 NSaved=   7.
 NSaved= 7 IEnMin= 7 EnMin= -2.35453050925634     IErMin= 7 ErrMin= 4.03D-03
 ErrMax= 4.03D-03  0.00D+00 EMaxC= 1.00D-01 BMatC= 2.21D-03 BMatP= 4.45D-03
 IDIUse=3 WtCom= 9.60D-01 WtEn= 4.03D-02
 Coeff-Com:  0.724D-02-0.126D-01-0.138D-01 0.109D+00-0.215D+00-0.329D+00
 Coeff-Com:  0.145D+01
 Coeff-En:   0.000D+00 0.000D+00 0.000D+00 0.000D+00 0.000D+00 0.000D+00
 Coeff-En:   0.100D+01
 Coeff:      0.694D-02-0.121D-01-0.132D-01 0.105D+00-0.206D+00-0.316D+00
 Coeff:      0.144D+01
 Gap=     0.135 Goal=   None    Shift=    0.000
 RMSDP=2.07D-03 MaxDP=1.77D-02 DE=-1.58D-02 OVMax= 3.57D-02

 Cycle   8  Pass 1  IDiag  3:
 E= -2.36576986538000     Delta-E=       -0.011239356124 Rises=F Damp=F
 DIIS: error= 2.02D-03 at cycle   8 NSaved=   8.
 NSaved= 8 IEnMin= 8 EnMin= -2.36576986538000     IErMin= 8 ErrMin= 2.02D-03
 ErrMax= 2.02D-03  0.00D+00 EMaxC= 1.00D-01 BMatC= 7.57D-04 BMatP= 2.21D-03
 IDIUse=3 WtCom= 9.80D-01 WtEn= 2.02D-02
 Coeff-Com: -0.101D-01 0.112D-01-0.325D-03 0.172D-01 0.124D+00 0.160D-01
 Coeff-Com: -0.135D+01 0.219D+01
 Coeff-En:   0.000D+00 0.000D+00 0.000D+00 0.000D+00 0.000D+00 0.000D+00
 Coeff-En:   0.000D+00 0.100D+01
 Coeff:     -0.992D-02 0.110D-01-0.318D-03 0.169D-01 0.122D+00 0.157D-01
 Coeff:     -0.132D+01 0.217D+01
 Gap=     0.131 Goal=   None    Shift=    0.000
 RMSDP=2.37D-03 MaxDP=2.41D-02 DE=-1.12D-02 OVMax= 4.64D-02

 Cycle   9  Pass 1  IDiag  3:
 E= -2.37226597296399     Delta-E=       -0.006496107584 Rises=F Damp=F
 DIIS: error= 1.05D-03 at cycle   9 NSaved=   9.
 NSaved= 9 IEnMin= 9 EnMin= -2.37226597296399     IErMin= 9 ErrMin= 1.05D-03
 ErrMax= 1.05D-03  0.00D+00 EMaxC= 1.00D-01 BMatC= 1.12D-04 BMatP= 7.57D-04
 IDIUse=3 WtCom= 9.90D-01 WtEn= 1.05D-02
 Coeff-Com:  0.767D-03 0.886D-03 0.833D-03 0.277D-02-0.483D-01 0.213D+00
 Coeff-Com:  0.208D+00-0.117D+01 0.179D+01
 Coeff-En:   0.000D+00 0.000D+00 0.000D+00 0.000D+00 0.000D+00 0.000D+00
 Coeff-En:   0.000D+00 0.000D+00 0.100D+01
 Coeff:      0.759D-03 0.877D-03 0.824D-03 0.274D-02-0.478D-01 0.211D+00
 Coeff:      0.206D+00-0.115D+01 0.178D+01
 Gap=     0.133 Goal=   None    Shift=    0.000
 RMSDP=1.38D-03 MaxDP=2.14D-02 DE=-6.50D-03 OVMax= 2.79D-02

 Cycle  10  Pass 1  IDiag  3:
 E= -2.37393827082593     Delta-E=       -0.001672297862 Rises=F Damp=F
 DIIS: error= 5.34D-04 at cycle  10 NSaved=  10.
 NSaved=10 IEnMin=10 EnMin= -2.37393827082593     IErMin=10 ErrMin= 5.34D-04
 ErrMax= 5.34D-04  0.00D+00 EMaxC= 1.00D-01 BMatC= 2.77D-05 BMatP= 1.12D-04
 IDIUse=3 WtCom= 9.95D-01 WtEn= 5.34D-03
 Coeff-Com: -0.985D-04-0.301D-02-0.381D-03-0.831D-04 0.174D-01-0.140D+00
 Coeff-Com:  0.428D-01 0.481D+00-0.135D+01 0.195D+01
 Coeff-En:   0.000D+00 0.000D+00 0.000D+00 0.000D+00 0.000D+00 0.000D+00
 Coeff-En:   0.000D+00 0.000D+00 0.000D+00 0.100D+01
 Coeff:     -0.980D-04-0.300D-02-0.379D-03-0.827D-04 0.173D-01-0.139D+00
 Coeff:      0.426D-01 0.478D+00-0.134D+01 0.194D+01
 Gap=     0.138 Goal=   None    Shift=    0.000
 RMSDP=1.04D-03 MaxDP=1.59D-02 DE=-1.67D-03 OVMax= 2.00D-02

 Cycle  11  Pass 1  IDiag  3:
 E= -2.37463975823698     Delta-E=       -0.000701487411 Rises=F Damp=F
 DIIS: error= 3.49D-04 at cycle  11 NSaved=  11.
 NSaved=11 IEnMin=11 EnMin= -2.37463975823698     IErMin=11 ErrMin= 3.49D-04
 ErrMax= 3.49D-04  0.00D+00 EMaxC= 1.00D-01 BMatC= 1.20D-05 BMatP= 2.77D-05
 IDIUse=3 WtCom= 9.97D-01 WtEn= 3.49D-03
 Coeff-Com: -0.827D-03 0.118D-02 0.603D-03-0.451D-02 0.250D-01 0.240D-01
 Coeff-Com: -0.194D+00 0.196D+00 0.204D+00-0.109D+01 0.183D+01
 Coeff-En:   0.000D+00 0.000D+00 0.000D+00 0.000D+00 0.000D+00 0.000D+00
 Coeff-En:   0.000D+00 0.000D+00 0.000D+00 0.000D+00 0.100D+01
 Coeff:     -0.824D-03 0.118D-02 0.601D-03-0.450D-02 0.249D-01 0.239D-01
 Coeff:     -0.193D+00 0.196D+00 0.203D+00-0.108D+01 0.183D+01
 Gap=     0.139 Goal=   None    Shift=    0.000
 RMSDP=7.84D-04 MaxDP=1.00D-02 DE=-7.01D-04 OVMax= 1.59D-02

 Cycle  12  Pass 1  IDiag  3:
 E= -2.37498568749959     Delta-E=       -0.000345929263 Rises=F Damp=F
 DIIS: error= 2.21D-04 at cycle  12 NSaved=  12.
 NSaved=12 IEnMin=12 EnMin= -2.37498568749959     IErMin=12 ErrMin= 2.21D-04
 ErrMax= 2.21D-04  0.00D+00 EMaxC= 1.00D-01 BMatC= 6.66D-06 BMatP= 1.20D-05
 IDIUse=3 WtCom= 9.98D-01 WtEn= 2.21D-03
 Coeff-Com:  0.795D-03-0.428D-03-0.512D-05-0.208D-02-0.539D-02 0.276D-02
 Coeff-Com:  0.617D-01-0.103D+00 0.694D-01 0.261D+00-0.131D+01 0.202D+01
 Coeff-En:   0.000D+00 0.000D+00 0.000D+00 0.000D+00 0.000D+00 0.000D+00
 Coeff-En:   0.000D+00 0.000D+00 0.000D+00 0.000D+00 0.000D+00 0.100D+01
 Coeff:      0.793D-03-0.427D-03-0.511D-05-0.207D-02-0.538D-02 0.275D-02
 Coeff:      0.615D-01-0.102D+00 0.692D-01 0.261D+00-0.131D+01 0.202D+01
 Gap=     0.141 Goal=   None    Shift=    0.000
 RMSDP=6.51D-04 MaxDP=6.21D-03 DE=-3.46D-04 OVMax= 1.57D-02

 Cycle  13  Pass 1  IDiag  3:
 E= -2.37518947093412     Delta-E=       -0.000203783435 Rises=F Damp=F
 DIIS: error= 1.63D-04 at cycle  13 NSaved=  13.
 NSaved=13 IEnMin=13 EnMin= -2.37518947093412     IErMin=13 ErrMin= 1.63D-04
 ErrMax= 1.63D-04  0.00D+00 EMaxC= 1.00D-01 BMatC= 3.44D-06 BMatP= 6.66D-06
 IDIUse=3 WtCom= 9.98D-01 WtEn= 1.63D-03
 Coeff-Com: -0.367D-03-0.273D-03-0.112D-03-0.162D-02 0.953D-02-0.162D-01
 Coeff-Com: -0.328D-01 0.912D-01-0.140D+00 0.214D+00 0.534D-01-0.128D+01
 Coeff-Com:  0.210D+01
 Coeff-En:   0.000D+00 0.000D+00 0.000D+00 0.000D+00 0.000D+00 0.000D+00
 Coeff-En:   0.000D+00 0.000D+00 0.000D+00 0.000D+00 0.000D+00 0.000D+00
 Coeff-En:   0.100D+01
 Coeff:     -0.367D-03-0.272D-03-0.112D-03-0.162D-02 0.951D-02-0.162D-01
 Coeff:     -0.327D-01 0.910D-01-0.140D+00 0.214D+00 0.534D-01-0.128D+01
 Coeff:      0.210D+01
 Gap=     0.143 Goal=   None    Shift=    0.000
 RMSDP=6.02D-04 MaxDP=4.83D-03 DE=-2.04D-04 OVMax= 1.59D-02

 Cycle  14  Pass 1  IDiag  3:
 E= -2.37530917218044     Delta-E=       -0.000119701246 Rises=F Damp=F
 DIIS: error= 1.23D-04 at cycle  14 NSaved=  14.
 NSaved=14 IEnMin=14 EnMin= -2.37530917218044     IErMin=14 ErrMin= 1.23D-04
 ErrMax= 1.23D-04  0.00D+00 EMaxC= 1.00D-01 BMatC= 1.68D-06 BMatP= 3.44D-06
 IDIUse=3 WtCom= 9.99D-01 WtEn= 1.23D-03
 Coeff-Com:  0.616D-04-0.142D-03-0.139D-04-0.808D-03 0.652D-02-0.556D-02
 Coeff-Com: -0.337D-01 0.732D-01-0.371D-01-0.111D+00 0.360D+00-0.260D+00
 Coeff-Com: -0.661D+00 0.167D+01
 Coeff-En:   0.000D+00 0.000D+00 0.000D+00 0.000D+00 0.000D+00 0.000D+00
 Coeff-En:   0.000D+00 0.000D+00 0.000D+00 0.000D+00 0.000D+00 0.000D+00
 Coeff-En:   0.000D+00 0.100D+01
 Coeff:      0.615D-04-0.142D-03-0.139D-04-0.807D-03 0.651D-02-0.555D-02
 Coeff:     -0.337D-01 0.731D-01-0.370D-01-0.110D+00 0.360D+00-0.259D+00
 Coeff:     -0.660D+00 0.167D+01
 Gap=     0.144 Goal=   None    Shift=    0.000
 RMSDP=3.37D-04 MaxDP=2.37D-03 DE=-1.20D-04 OVMax= 9.67D-03

 Cycle  15  Pass 1  IDiag  3:
 E= -2.37535158932513     Delta-E=       -0.000042417145 Rises=F Damp=F
 DIIS: error= 1.06D-04 at cycle  15 NSaved=  15.
 NSaved=15 IEnMin=15 EnMin= -2.37535158932513     IErMin=15 ErrMin= 1.06D-04
 ErrMax= 1.06D-04  0.00D+00 EMaxC= 1.00D-01 BMatC= 7.26D-07 BMatP= 1.68D-06
 IDIUse=3 WtCom= 9.99D-01 WtEn= 1.06D-03
 Coeff-Com:  0.460D-04-0.899D-04 0.382D-04-0.508D-03-0.545D-03-0.293D-02
 Coeff-Com:  0.859D-02-0.632D-02-0.149D-01 0.753D-01-0.206D+00 0.257D+00
 Coeff-Com:  0.116D-01-0.957D+00 0.184D+01
 Coeff-En:   0.000D+00 0.000D+00 0.000D+00 0.000D+00 0.000D+00 0.000D+00
 Coeff-En:   0.000D+00 0.000D+00 0.000D+00 0.000D+00 0.000D+00 0.000D+00
 Coeff-En:   0.000D+00 0.000D+00 0.100D+01
 Coeff:      0.459D-04-0.898D-04 0.381D-04-0.508D-03-0.545D-03-0.293D-02
 Coeff:      0.858D-02-0.631D-02-0.149D-01 0.753D-01-0.206D+00 0.257D+00
 Coeff:      0.116D-01-0.956D+00 0.183D+01
 Gap=     0.144 Goal=   None    Shift=    0.000
 RMSDP=2.25D-04 MaxDP=2.01D-03 DE=-4.24D-05 OVMax= 6.27D-03

 Cycle  16  Pass 1  IDiag  3:
 E= -2.37536932215608     Delta-E=       -0.000017732831 Rises=F Damp=F
 DIIS: error= 8.27D-05 at cycle  16 NSaved=  16.
 NSaved=16 IEnMin=16 EnMin= -2.37536932215608     IErMin=16 ErrMin= 8.27D-05
 ErrMax= 8.27D-05  0.00D+00 EMaxC= 1.00D-01 BMatC= 3.37D-07 BMatP= 7.26D-07
 IDIUse=1 WtCom= 1.00D+00 WtEn= 0.00D+00
 Coeff-Com:  0.953D-04-0.140D-03 0.353D-04-0.261D-03-0.362D-04-0.189D-03
 Coeff-Com: -0.107D-02 0.400D-02 0.606D-03-0.119D-01 0.360D-01-0.885D-01
 Coeff-Com:  0.176D+00 0.502D-01-0.115D+01 0.199D+01
 Coeff:      0.953D-04-0.140D-03 0.353D-04-0.261D-03-0.362D-04-0.189D-03
 Coeff:     -0.107D-02 0.400D-02 0.606D-03-0.119D-01 0.360D-01-0.885D-01
 Coeff:      0.176D+00 0.502D-01-0.115D+01 0.199D+01
 Gap=     0.144 Goal=   None    Shift=    0.000
 RMSDP=1.36D-04 MaxDP=1.69D-03 DE=-1.77D-05 OVMax= 3.17D-03

 Cycle  17  Pass 1  IDiag  3:
 E= -2.37537719627096     Delta-E=       -0.000007874115 Rises=F Damp=F
 DIIS: error= 5.82D-05 at cycle  17 NSaved=  17.
 NSaved=17 IEnMin=17 EnMin= -2.37537719627096     IErMin=17 ErrMin= 5.82D-05
 ErrMax= 5.82D-05  0.00D+00 EMaxC= 1.00D-01 BMatC= 1.38D-07 BMatP= 3.37D-07
 IDIUse=1 WtCom= 1.00D+00 WtEn= 0.00D+00
 Coeff-Com:  0.294D-04-0.164D-03 0.464D-04 0.203D-05-0.409D-04 0.687D-03
 Coeff-Com: -0.107D-02-0.655D-03 0.773D-03 0.959D-02-0.221D-01-0.937D-02
 Coeff-Com:  0.419D-01 0.864D-02 0.178D+00-0.121D+01 0.200D+01
 Coeff:      0.294D-04-0.164D-03 0.464D-04 0.203D-05-0.409D-04 0.687D-03
 Coeff:     -0.107D-02-0.655D-03 0.773D-03 0.959D-02-0.221D-01-0.937D-02
 Coeff:      0.419D-01 0.864D-02 0.178D+00-0.121D+01 0.200D+01
 Gap=     0.145 Goal=   None    Shift=    0.000
 RMSDP=9.34D-05 MaxDP=1.41D-03 DE=-7.87D-06 OVMax= 2.04D-03

 Cycle  18  Pass 1  IDiag  3:
 E= -2.37538087979357     Delta-E=       -0.000003683523 Rises=F Damp=F
 DIIS: error= 3.73D-05 at cycle  18 NSaved=  18.
 NSaved=18 IEnMin=18 EnMin= -2.37538087979357     IErMin=18 ErrMin= 3.73D-05
 ErrMax= 3.73D-05  0.00D+00 EMaxC= 1.00D-01 BMatC= 5.23D-08 BMatP= 1.38D-07
 IDIUse=1 WtCom= 1.00D+00 WtEn= 0.00D+00
 Coeff-Com: -0.873D-05-0.570D-05 0.705D-05-0.175D-03 0.422D-03-0.401D-03
 Coeff-Com: -0.344D-02 0.706D-02-0.850D-02 0.117D-01-0.140D-01 0.822D-02
 Coeff-Com: -0.108D-02-0.170D-01-0.976D-02 0.345D+00-0.128D+01 0.196D+01
 Coeff:     -0.873D-05-0.570D-05 0.705D-05-0.175D-03 0.422D-03-0.401D-03
 Coeff:     -0.344D-02 0.706D-02-0.850D-02 0.117D-01-0.140D-01 0.822D-02
 Coeff:     -0.108D-02-0.170D-01-0.976D-02 0.345D+00-0.128D+01 0.196D+01
 Gap=     0.145 Goal=   None    Shift=    0.000
 RMSDP=6.21D-05 MaxDP=1.01D-03 DE=-3.68D-06 OVMax= 1.44D-03

 Cycle  19  Pass 1  IDiag  3:
 E= -2.37538231313948     Delta-E=       -0.000001433346 Rises=F Damp=F
 DIIS: error= 2.29D-05 at cycle  19 NSaved=  19.
 NSaved=19 IEnMin=19 EnMin= -2.37538231313948     IErMin=19 ErrMin= 2.29D-05
 ErrMax= 2.29D-05  0.00D+00 EMaxC= 1.00D-01 BMatC= 2.18D-08 BMatP= 5.23D-08
 IDIUse=1 WtCom= 1.00D+00 WtEn= 0.00D+00
 Coeff-Com:  0.139D-04-0.262D-04-0.626D-05-0.100D-03 0.252D-04 0.529D-03
 Coeff-Com: -0.806D-03-0.312D-03 0.261D-02-0.370D-02 0.755D-02-0.121D-01
 Coeff-Com:  0.186D-01-0.328D-01 0.278D-01-0.858D-01 0.346D+00-0.988D+00
 Coeff-Com:  0.172D+01
 Coeff:      0.139D-04-0.262D-04-0.626D-05-0.100D-03 0.252D-04 0.529D-03
 Coeff:     -0.806D-03-0.312D-03 0.261D-02-0.370D-02 0.755D-02-0.121D-01
 Coeff:      0.186D-01-0.328D-01 0.278D-01-0.858D-01 0.346D+00-0.988D+00
 Coeff:      0.172D+01
 Gap=     0.145 Goal=   None    Shift=    0.000
 RMSDP=3.22D-05 MaxDP=5.61D-04 DE=-1.43D-06 OVMax= 7.61D-04

 Cycle  20  Pass 1  IDiag  3:
 E= -2.37538280188295     Delta-E=       -0.000000488743 Rises=F Damp=F
 DIIS: error= 1.50D-05 at cycle  20 NSaved=  20.
 NSaved=20 IEnMin=20 EnMin= -2.37538280188295     IErMin=20 ErrMin= 1.50D-05
 ErrMax= 1.50D-05  0.00D+00 EMaxC= 1.00D-01 BMatC= 1.04D-08 BMatP= 2.18D-08
 IDIUse=1 WtCom= 1.00D+00 WtEn= 0.00D+00
 Coeff-Com:  0.143D-04-0.593D-05 0.676D-05-0.915D-04-0.226D-03 0.489D-03
 Coeff-Com:  0.447D-03-0.236D-02 0.252D-02 0.209D-02-0.120D-01 0.135D-01
 Coeff-Com:  0.482D-02-0.131D-01-0.536D-02 0.123D-01-0.255D-01 0.261D+00
 Coeff-Com: -0.119D+01 0.195D+01
 Coeff:      0.143D-04-0.593D-05 0.676D-05-0.915D-04-0.226D-03 0.489D-03
 Coeff:      0.447D-03-0.236D-02 0.252D-02 0.209D-02-0.120D-01 0.135D-01
 Coeff:      0.482D-02-0.131D-01-0.536D-02 0.123D-01-0.255D-01 0.261D+00
 Coeff:     -0.119D+01 0.195D+01
 Gap=     0.145 Goal=   None    Shift=    0.000
 RMSDP=2.20D-05 MaxDP=3.68D-04 DE=-4.89D-07 OVMax= 4.72D-04

 Cycle  21  Pass 1  IDiag  3:
 E= -2.37538305894560     Delta-E=       -0.000000257063 Rises=F Damp=F
 DIIS: error= 9.36D-06 at cycle  21 NSaved=  20.
 NSaved=20 IEnMin=20 EnMin= -2.37538305894560     IErMin=20 ErrMin= 9.36D-06
 ErrMax= 9.36D-06  0.00D+00 EMaxC= 1.00D-01 BMatC= 5.12D-09 BMatP= 1.04D-08
 IDIUse=1 WtCom= 1.00D+00 WtEn= 0.00D+00
 Coeff-Com:  0.417D-05 0.133D-05-0.850D-04 0.855D-04-0.942D-04-0.605D-03
 Coeff-Com:  0.154D-02-0.120D-02-0.668D-03 0.425D-02-0.745D-02 0.745D-02
 Coeff-Com: -0.107D-02-0.566D-02-0.124D-02-0.160D-01 0.589D-01 0.284D+00
 Coeff-Com: -0.148D+01 0.216D+01
 Coeff:      0.417D-05 0.133D-05-0.850D-04 0.855D-04-0.942D-04-0.605D-03
 Coeff:      0.154D-02-0.120D-02-0.668D-03 0.425D-02-0.745D-02 0.745D-02
 Coeff:     -0.107D-02-0.566D-02-0.124D-02-0.160D-01 0.589D-01 0.284D+00
 Coeff:     -0.148D+01 0.216D+01
 Gap=     0.144 Goal=   None    Shift=    0.000
 RMSDP=1.80D-05 MaxDP=2.63D-04 DE=-2.57D-07 OVMax= 3.72D-04

 Cycle  22  Pass 1  IDiag  3:
 E= -2.37538320894896     Delta-E=       -0.000000150003 Rises=F Damp=F
 DIIS: error= 5.18D-06 at cycle  22 NSaved=  20.
 NSaved=20 IEnMin=20 EnMin= -2.37538320894896     IErMin=20 ErrMin= 5.18D-06
 ErrMax= 5.18D-06  0.00D+00 EMaxC= 1.00D-01 BMatC= 2.24D-09 BMatP= 5.12D-09
 IDIUse=1 WtCom= 1.00D+00 WtEn= 0.00D+00
 Coeff-Com: -0.236D-05-0.367D-04 0.735D-04 0.173D-03-0.319D-03-0.201D-03
 Coeff-Com:  0.996D-03-0.771D-03-0.229D-02 0.275D-02 0.157D-02-0.599D-02
 Coeff-Com:  0.949D-02 0.525D-02-0.371D-01 0.158D-01-0.697D-01 0.559D+00
 Coeff-Com: -0.157D+01 0.209D+01
 Coeff:     -0.236D-05-0.367D-04 0.735D-04 0.173D-03-0.319D-03-0.201D-03
 Coeff:      0.996D-03-0.771D-03-0.229D-02 0.275D-02 0.157D-02-0.599D-02
 Coeff:      0.949D-02 0.525D-02-0.371D-01 0.158D-01-0.697D-01 0.559D+00
 Coeff:     -0.157D+01 0.209D+01
 Gap=     0.144 Goal=   None    Shift=    0.000
 RMSDP=1.35D-05 MaxDP=1.86D-04 DE=-1.50D-07 OVMax= 2.50D-04

 Cycle  23  Pass 1  IDiag  3:
 E= -2.37538327835227     Delta-E=       -0.000000069403 Rises=F Damp=F
 DIIS: error= 3.36D-06 at cycle  23 NSaved=  20.
 NSaved=20 IEnMin=20 EnMin= -2.37538327835227     IErMin=20 ErrMin= 3.36D-06
 ErrMax= 3.36D-06  0.00D+00 EMaxC= 1.00D-01 BMatC= 8.69D-10 BMatP= 2.24D-09
 IDIUse=1 WtCom= 1.00D+00 WtEn= 0.00D+00
 Coeff-Com: -0.169D-04 0.545D-04-0.185D-03-0.748D-04 0.537D-03-0.106D-02
 Coeff-Com:  0.118D-02-0.175D-03-0.237D-02 0.290D-02-0.179D-02 0.273D-02
 Coeff-Com: -0.272D-02-0.135D-02 0.188D-01-0.245D-01-0.186D+00 0.730D+00
 Coeff-Com: -0.172D+01 0.218D+01
 Coeff:     -0.169D-04 0.545D-04-0.185D-03-0.748D-04 0.537D-03-0.106D-02
 Coeff:      0.118D-02-0.175D-03-0.237D-02 0.290D-02-0.179D-02 0.273D-02
 Coeff:     -0.272D-02-0.135D-02 0.188D-01-0.245D-01-0.186D+00 0.730D+00
 Coeff:     -0.172D+01 0.218D+01
 Gap=     0.144 Goal=   None    Shift=    0.000
 RMSDP=1.03D-05 MaxDP=1.39D-04 DE=-6.94D-08 OVMax= 2.15D-04

 Cycle  24  Pass 1  IDiag  3:
 E= -2.37538330663523     Delta-E=       -0.000000028283 Rises=F Damp=F
 DIIS: error= 1.85D-06 at cycle  24 NSaved=  20.
 NSaved=20 IEnMin=20 EnMin= -2.37538330663523     IErMin=20 ErrMin= 1.85D-06
 ErrMax= 1.85D-06  0.00D+00 EMaxC= 1.00D-01 BMatC= 3.06D-10 BMatP= 8.69D-10
 IDIUse=1 WtCom= 1.00D+00 WtEn= 0.00D+00
 Coeff-Com:  0.242D-04 0.210D-04-0.533D-04-0.492D-04 0.451D-03-0.700D-03
 Coeff-Com:  0.247D-04 0.419D-03 0.395D-03-0.215D-02 0.339D-02 0.894D-03
 Coeff-Com: -0.918D-02 0.123D-01-0.411D-01 0.785D-01-0.191D+00 0.476D+00
 Coeff-Com: -0.109D+01 0.176D+01
 Coeff:      0.242D-04 0.210D-04-0.533D-04-0.492D-04 0.451D-03-0.700D-03
 Coeff:      0.247D-04 0.419D-03 0.395D-03-0.215D-02 0.339D-02 0.894D-03
 Coeff:     -0.918D-02 0.123D-01-0.411D-01 0.785D-01-0.191D+00 0.476D+00
 Coeff:     -0.109D+01 0.176D+01
 Gap=     0.144 Goal=   None    Shift=    0.000
 RMSDP=5.86D-06 MaxDP=7.71D-05 DE=-2.83D-08 OVMax= 1.26D-04

 Cycle  25  Pass 1  IDiag  3:
 E= -2.37538331351089     Delta-E=       -0.000000006876 Rises=F Damp=F
 DIIS: error= 8.33D-07 at cycle  25 NSaved=  20.
 NSaved=20 IEnMin=20 EnMin= -2.37538331351089     IErMin=20 ErrMin= 8.33D-07
 ErrMax= 8.33D-07  0.00D+00 EMaxC= 1.00D-01 BMatC= 1.09D-10 BMatP= 3.06D-10
 IDIUse=1 WtCom= 1.00D+00 WtEn= 0.00D+00
 Coeff-Com:  0.126D-04-0.107D-03 0.943D-04-0.109D-03 0.313D-03-0.566D-03
 Coeff-Com: -0.118D-03 0.111D-02-0.314D-03-0.446D-03-0.700D-03-0.126D-03
 Coeff-Com:  0.869D-02 0.625D-02-0.717D-01 0.125D+00-0.157D+00 0.294D+00
 Coeff-Com: -0.845D+00 0.164D+01
 Coeff:      0.126D-04-0.107D-03 0.943D-04-0.109D-03 0.313D-03-0.566D-03
 Coeff:     -0.118D-03 0.111D-02-0.314D-03-0.446D-03-0.700D-03-0.126D-03
 Coeff:      0.869D-02 0.625D-02-0.717D-01 0.125D+00-0.157D+00 0.294D+00
 Coeff:     -0.845D+00 0.164D+01
 Gap=     0.144 Goal=   None    Shift=    0.000
 RMSDP=2.34D-06 MaxDP=2.27D-05 DE=-6.88D-09 OVMax= 4.65D-05

 Cycle  26  Pass 1  IDiag  3:
 E= -2.37538331506329     Delta-E=       -0.000000001552 Rises=F Damp=F
 DIIS: error= 4.72D-07 at cycle  26 NSaved=  20.
 NSaved=20 IEnMin=20 EnMin= -2.37538331506329     IErMin=20 ErrMin= 4.72D-07
 ErrMax= 4.72D-07  0.00D+00 EMaxC= 1.00D-01 BMatC= 4.26D-11 BMatP= 1.09D-10
 IDIUse=1 WtCom= 1.00D+00 WtEn= 0.00D+00
 Coeff-Com:  0.565D-04-0.895D-04 0.128D-03-0.183D-03 0.400D-03-0.600D-03
 Coeff-Com:  0.641D-03-0.504D-03 0.494D-03 0.328D-03-0.214D-02 0.440D-02
 Coeff-Com: -0.492D-02 0.269D-01-0.491D-01 0.215D-01 0.336D-01 0.152D+00
 Coeff-Com: -0.105D+01 0.187D+01
 Coeff:      0.565D-04-0.895D-04 0.128D-03-0.183D-03 0.400D-03-0.600D-03
 Coeff:      0.641D-03-0.504D-03 0.494D-03 0.328D-03-0.214D-02 0.440D-02
 Coeff:     -0.492D-02 0.269D-01-0.491D-01 0.215D-01 0.336D-01 0.152D+00
 Coeff:     -0.105D+01 0.187D+01
 Gap=     0.144 Goal=   None    Shift=    0.000
 RMSDP=1.17D-06 MaxDP=1.34D-05 DE=-1.55D-09 OVMax= 2.80D-05

 Cycle  27  Pass 1  IDiag  3:
 E= -2.37538331589553     Delta-E=       -0.000000000832 Rises=F Damp=F
 DIIS: error= 3.57D-07 at cycle  27 NSaved=  20.
 NSaved=20 IEnMin=20 EnMin= -2.37538331589553     IErMin=20 ErrMin= 3.57D-07
 ErrMax= 3.57D-07  0.00D+00 EMaxC= 1.00D-01 BMatC= 1.38D-11 BMatP= 4.26D-11
 IDIUse=1 WtCom= 1.00D+00 WtEn= 0.00D+00
 Coeff-Com: -0.197D-04 0.176D-04-0.144D-03 0.340D-03-0.436D-03 0.932D-04
 Coeff-Com:  0.662D-03 0.180D-04-0.920D-03 0.115D-02-0.182D-02 0.316D-02
 Coeff-Com: -0.118D-02 0.826D-02-0.147D-01-0.598D-02 0.168D-01 0.383D+00
 Coeff-Com: -0.136D+01 0.197D+01
 Coeff:     -0.197D-04 0.176D-04-0.144D-03 0.340D-03-0.436D-03 0.932D-04
 Coeff:      0.662D-03 0.180D-04-0.920D-03 0.115D-02-0.182D-02 0.316D-02
 Coeff:     -0.118D-02 0.826D-02-0.147D-01-0.598D-02 0.168D-01 0.383D+00
 Coeff:     -0.136D+01 0.197D+01
 Gap=     0.144 Goal=   None    Shift=    0.000
 RMSDP=1.16D-06 MaxDP=1.78D-05 DE=-8.32D-10 OVMax= 2.61D-05

 Cycle  28  Pass 1  IDiag  3:
 E= -2.37538331628105     Delta-E=       -0.000000000386 Rises=F Damp=F
 DIIS: error= 1.69D-07 at cycle  28 NSaved=  20.
 NSaved=20 IEnMin=20 EnMin= -2.37538331628105     IErMin=20 ErrMin= 1.69D-07
 ErrMax= 1.69D-07  0.00D+00 EMaxC= 1.00D-01 BMatC= 3.85D-12 BMatP= 1.38D-11
 IDIUse=1 WtCom= 1.00D+00 WtEn= 0.00D+00
 Coeff-Com:  0.187D-04-0.345D-04 0.469D-04 0.618D-04-0.163D-03 0.606D-04
 Coeff-Com: -0.108D-03 0.643D-03-0.765D-03 0.672D-03 0.819D-03-0.300D-02
 Coeff-Com:  0.658D-02 0.156D-02-0.811D-02-0.401D-01 0.552D-01 0.204D+00
 Coeff-Com: -0.702D+00 0.148D+01
 Coeff:      0.187D-04-0.345D-04 0.469D-04 0.618D-04-0.163D-03 0.606D-04
 Coeff:     -0.108D-03 0.643D-03-0.765D-03 0.672D-03 0.819D-03-0.300D-02
 Coeff:      0.658D-02 0.156D-02-0.811D-02-0.401D-01 0.552D-01 0.204D+00
 Coeff:     -0.702D+00 0.148D+01
 Gap=     0.144 Goal=   None    Shift=    0.000
 RMSDP=4.45D-07 MaxDP=7.33D-06 DE=-3.86D-10 OVMax= 1.02D-05

 Cycle  29  Pass 1  IDiag  3:
 E= -2.37538331634039     Delta-E=       -0.000000000059 Rises=F Damp=F
 DIIS: error= 1.08D-07 at cycle  29 NSaved=  20.
 NSaved=20 IEnMin=20 EnMin= -2.37538331634039     IErMin=20 ErrMin= 1.08D-07
 ErrMax= 1.08D-07  0.00D+00 EMaxC= 1.00D-01 BMatC= 1.52D-12 BMatP= 3.85D-12
 IDIUse=1 WtCom= 1.00D+00 WtEn= 0.00D+00
 Coeff-Com: -0.474D-04 0.156D-03-0.832D-04-0.143D-03 0.245D-03-0.188D-03
 Coeff-Com:  0.523D-04 0.241D-03-0.181D-02 0.217D-02 0.196D-02-0.128D-01
 Coeff-Com:  0.192D-01-0.189D-01 0.403D-01-0.124D+00 0.184D+00-0.358D-01
 Coeff-Com: -0.746D+00 0.169D+01
 Coeff:     -0.474D-04 0.156D-03-0.832D-04-0.143D-03 0.245D-03-0.188D-03
 Coeff:      0.523D-04 0.241D-03-0.181D-02 0.217D-02 0.196D-02-0.128D-01
 Coeff:      0.192D-01-0.189D-01 0.403D-01-0.124D+00 0.184D+00-0.358D-01
 Coeff:     -0.746D+00 0.169D+01
 Gap=     0.144 Goal=   None    Shift=    0.000
 RMSDP=1.94D-07 MaxDP=1.96D-06 DE=-5.93D-11 OVMax= 3.54D-06

 Cycle  30  Pass 1  IDiag  3:
 E= -2.37538331636802     Delta-E=       -0.000000000028 Rises=F Damp=F
 DIIS: error= 6.92D-08 at cycle  30 NSaved=  20.
 NSaved=20 IEnMin=20 EnMin= -2.37538331636802     IErMin=20 ErrMin= 6.92D-08
 ErrMax= 6.92D-08  0.00D+00 EMaxC= 1.00D-01 BMatC= 5.71D-13 BMatP= 1.52D-12
 IDIUse=1 WtCom= 1.00D+00 WtEn= 0.00D+00
 Coeff-Com: -0.537D-04 0.103D-03-0.487D-04 0.244D-04-0.237D-03 0.398D-03
 Coeff-Com: -0.526D-03 0.742D-03-0.416D-03-0.195D-02 0.575D-02-0.596D-02
 Coeff-Com:  0.301D-02-0.160D-01 0.495D-01-0.147D+00 0.191D+00 0.715D-01
 Coeff-Com: -0.101D+01 0.186D+01
 Coeff:     -0.537D-04 0.103D-03-0.487D-04 0.244D-04-0.237D-03 0.398D-03
 Coeff:     -0.526D-03 0.742D-03-0.416D-03-0.195D-02 0.575D-02-0.596D-02
 Coeff:      0.301D-02-0.160D-01 0.495D-01-0.147D+00 0.191D+00 0.715D-01
 Coeff:     -0.101D+01 0.186D+01
 Gap=     0.144 Goal=   None    Shift=    0.000
 RMSDP=2.15D-07 MaxDP=2.15D-06 DE=-2.76D-11 OVMax= 4.92D-06

 Cycle  31  Pass 1  IDiag  3:
 E= -2.37538331638785     Delta-E=       -0.000000000020 Rises=F Damp=F
 DIIS: error= 4.50D-08 at cycle  31 NSaved=  20.
 NSaved=20 IEnMin=20 EnMin= -2.37538331638785     IErMin=20 ErrMin= 4.50D-08
 ErrMax= 4.50D-08  0.00D+00 EMaxC= 1.00D-01 BMatC= 1.89D-13 BMatP= 5.71D-13
 IDIUse=1 WtCom= 1.00D+00 WtEn= 0.00D+00
 Coeff-Com: -0.329D-04 0.501D-04-0.470D-04 0.699D-04-0.127D-03 0.189D-03
 Coeff-Com: -0.142D-03-0.242D-03-0.681D-04 0.863D-03-0.209D-02 0.941D-03
 Coeff-Com: -0.330D-02 0.496D-02 0.827D-03-0.581D-01 0.171D+00-0.179D+00
 Coeff-Com: -0.377D+00 0.144D+01
 Coeff:     -0.329D-04 0.501D-04-0.470D-04 0.699D-04-0.127D-03 0.189D-03
 Coeff:     -0.142D-03-0.242D-03-0.681D-04 0.863D-03-0.209D-02 0.941D-03
 Coeff:     -0.330D-02 0.496D-02 0.827D-03-0.581D-01 0.171D+00-0.179D+00
 Coeff:     -0.377D+00 0.144D+01
 Gap=     0.144 Goal=   None    Shift=    0.000
 RMSDP=1.46D-07 MaxDP=1.59D-06 DE=-1.98D-11 OVMax= 3.19D-06

 Cycle  32  Pass 1  IDiag  3:
 E= -2.37538331639291     Delta-E=       -0.000000000005 Rises=F Damp=F
 DIIS: error= 2.34D-08 at cycle  32 NSaved=  20.
 NSaved=20 IEnMin=20 EnMin= -2.37538331639291     IErMin=20 ErrMin= 2.34D-08
 ErrMax= 2.34D-08  0.00D+00 EMaxC= 1.00D-01 BMatC= 6.61D-14 BMatP= 1.89D-13
 IDIUse=1 WtCom= 1.00D+00 WtEn= 0.00D+00
 Coeff-Com:  0.194D-04-0.109D-04-0.631D-05 0.667D-04-0.158D-03 0.803D-04
 Coeff-Com:  0.790D-04-0.559D-03 0.838D-03-0.129D-02 0.274D-02-0.624D-03
 Coeff-Com: -0.572D-02 0.292D-02 0.143D-01-0.131D+00 0.318D+00-0.256D+00
 Coeff-Com: -0.558D+00 0.161D+01
 Coeff:      0.194D-04-0.109D-04-0.631D-05 0.667D-04-0.158D-03 0.803D-04
 Coeff:      0.790D-04-0.559D-03 0.838D-03-0.129D-02 0.274D-02-0.624D-03
 Coeff:     -0.572D-02 0.292D-02 0.143D-01-0.131D+00 0.318D+00-0.256D+00
 Coeff:     -0.558D+00 0.161D+01
 Gap=     0.144 Goal=   None    Shift=    0.000
 RMSDP=7.85D-08 MaxDP=9.52D-07 DE=-5.06D-12 OVMax= 1.72D-06

 Cycle  33  Pass 1  IDiag  3:
 E= -2.37538331639428     Delta-E=       -0.000000000001 Rises=F Damp=F
 DIIS: error= 1.02D-08 at cycle  33 NSaved=  20.
 NSaved=20 IEnMin=20 EnMin= -2.37538331639428     IErMin=20 ErrMin= 1.02D-08
 ErrMax= 1.02D-08  0.00D+00 EMaxC= 1.00D-01 BMatC= 1.92D-14 BMatP= 6.61D-14
 IDIUse=1 WtCom= 1.00D+00 WtEn= 0.00D+00
 Large coefficients: NSaved= 20 BigCof=    0.00 CofMax=   10.00 Det=-5.28D-15
 Inversion failed.  Reducing to 19 matrices.
 Large coefficients: NSaved= 19 BigCof=    0.00 CofMax=   10.00 Det=-5.30D-15
 Inversion failed.  Reducing to 18 matrices.
 Large coefficients: NSaved= 18 BigCof=    0.00 CofMax=   10.00 Det=-5.34D-15
 Inversion failed.  Reducing to 17 matrices.
 Large coefficients: NSaved= 17 BigCof=    0.00 CofMax=   10.00 Det=-5.48D-15
 Inversion failed.  Reducing to 16 matrices.
 Large coefficients: NSaved= 16 BigCof=    0.00 CofMax=   10.00 Det=-5.48D-15
 Inversion failed.  Reducing to 15 matrices.
 Coeff-Com:  0.936D-04-0.354D-03 0.906D-03-0.973D-03 0.163D-03-0.218D-03
 Coeff-Com:  0.471D-03-0.455D-02 0.126D-01 0.648D-02-0.109D+00 0.242D+00
 Coeff-Com: -0.126D+00-0.598D+00 0.158D+01
 Coeff:      0.936D-04-0.354D-03 0.906D-03-0.973D-03 0.163D-03-0.218D-03
 Coeff:      0.471D-03-0.455D-02 0.126D-01 0.648D-02-0.109D+00 0.242D+00
 Coeff:     -0.126D+00-0.598D+00 0.158D+01
 Gap=     0.144 Goal=   None    Shift=    0.000
 RMSDP=2.86D-08 MaxDP=3.39D-07 DE=-1.36D-12 OVMax= 6.08D-07

 Cycle  34  Pass 1  IDiag  3:
 E= -2.37538331639502     Delta-E=       -0.000000000001 Rises=F Damp=F
 DIIS: error= 7.15D-09 at cycle  34 NSaved=  16.
 NSaved=16 IEnMin=16 EnMin= -2.37538331639502     IErMin=16 ErrMin= 7.15D-09
 ErrMax= 7.15D-09  0.00D+00 EMaxC= 1.00D-01 BMatC= 5.46D-15 BMatP= 1.92D-14
 IDIUse=1 WtCom= 1.00D+00 WtEn= 0.00D+00
 Large coefficients: NSaved= 16 BigCof=    0.00 CofMax=   10.00 Det=-1.30D-15
 Inversion failed.  Reducing to 15 matrices.
 Coeff-Com:  0.575D-05-0.161D-03 0.210D-03 0.350D-03-0.313D-03-0.157D-02
 Coeff-Com:  0.352D-02-0.182D-02-0.154D-01 0.536D-01-0.101D+00 0.921D-01
 Coeff-Com:  0.202D+00-0.102D+01 0.179D+01
 Coeff:      0.575D-05-0.161D-03 0.210D-03 0.350D-03-0.313D-03-0.157D-02
 Coeff:      0.352D-02-0.182D-02-0.154D-01 0.536D-01-0.101D+00 0.921D-01
 Coeff:      0.202D+00-0.102D+01 0.179D+01
 Gap=     0.144 Goal=   None    Shift=    0.000
 RMSDP=1.01D-08 MaxDP=1.17D-07 DE=-7.39D-13 OVMax= 1.74D-07

 Cycle  35  Pass 1  IDiag  1:
 E= -2.37538331639439     Delta-E=        0.000000000001 Rises=F Damp=F
 DIIS: error= 4.70D-09 at cycle  35 NSaved=  16.
 NSaved=16 IEnMin=15 EnMin= -2.37538331639502     IErMin=16 ErrMin= 4.70D-09
 ErrMax= 4.70D-09  0.00D+00 EMaxC= 1.00D-01 BMatC= 1.45D-15 BMatP= 5.46D-15
 IDIUse=1 WtCom= 1.00D+00 WtEn= 0.00D+00
 Large coefficients: NSaved= 16 BigCof=    0.00 CofMax=   10.00 Det=-2.78D-16
 Inversion failed.  Reducing to 15 matrices.
 Coeff-Com:  0.205D-04 0.291D-04-0.141D-03 0.413D-03-0.254D-03-0.774D-03
 Coeff-Com:  0.209D-02-0.385D-03-0.375D-02 0.215D-01-0.695D-01 0.584D-01
 Coeff-Com:  0.251D+00-0.102D+01 0.176D+01
 Coeff:      0.205D-04 0.291D-04-0.141D-03 0.413D-03-0.254D-03-0.774D-03
 Coeff:      0.209D-02-0.385D-03-0.375D-02 0.215D-01-0.695D-01 0.584D-01
 Coeff:      0.251D+00-0.102D+01 0.176D+01
 RMSDP=6.58D-09 MaxDP=6.70D-08 DE= 6.25D-13 OVMax= 1.74D-07

 Cycle  36  Pass 2  IDiag  1:
 SCF Done:  E(RPM6) =  -2.37538331639     A.U. after   36 cycles
            NFock= 35  Conv=0.66D-08     -V/T= 0.9852
 KE=-1.605898463497D+02 PE=-7.714488939680D+02 EE= 4.263037572298D+02
 Leave Link  502 at Fri Jan  7 12:01:50 2022, MaxMem=   402653184 cpu:             236.4 elap:              36.7
 (Enter /work/01114/jfonner/frontera/gaussian/16rC.01/g16/l601.exe)
 Copying SCF densities to generalized density rwf, IOpCl= 0 IROHF=0.

 **********************************************************************

            Population analysis using the SCF Density.

 **********************************************************************

 Alpha  occ. eigenvalues --   -1.64366  -1.58817  -1.57112  -1.53956  -1.48772
 Alpha  occ. eigenvalues --   -1.47443  -1.45695  -1.42302  -1.35997  -1.32270
 Alpha  occ. eigenvalues --   -1.26179  -1.21212  -1.15401  -1.09928  -1.07644
 Alpha  occ. eigenvalues --   -1.04813  -1.01601  -0.99878  -0.98295  -0.96333
 Alpha  occ. eigenvalues --   -0.93857  -0.93540  -0.91832  -0.90261  -0.88322
 Alpha  occ. eigenvalues --   -0.87691  -0.87028  -0.85255  -0.84742  -0.81629
 Alpha  occ. eigenvalues --   -0.80946  -0.78046  -0.75207  -0.73797  -0.73177
 Alpha  occ. eigenvalues --   -0.69773  -0.68443
 Alpha virt. eigenvalues --   -0.56190  -0.52062  -0.48542  -0.44707  -0.43894
 Alpha virt. eigenvalues --   -0.43565  -0.40322  -0.39504  -0.38425  -0.34145
 Alpha virt. eigenvalues --   -0.33375  -0.30455  -0.29740  -0.29297  -0.29024
 Alpha virt. eigenvalues --   -0.27969  -0.26754  -0.26346  -0.25090  -0.24473
 Alpha virt. eigenvalues --   -0.23797  -0.20640  -0.17837  -0.15805  -0.12227
 Alpha virt. eigenvalues --   -0.10084   0.04976
          Condensed to atoms (all electrons):
               1          2          3          4          5          6
     1  C    3.550928   0.000000   0.000000   0.000000   0.000000   0.000000
     2  O    0.000000   6.183897   0.000000   0.000000   0.000000   0.000000
     3  N    0.000000   0.000000   5.322582   0.000000   0.000000   0.000000
     4  C    0.000000   0.000000   0.000000   3.922350   0.000000   0.000000
     5  C    0.000000   0.000000   0.000000   0.000000   3.528539   0.000000
     6  O    0.000000   0.000000   0.000000   0.000000   0.000000   6.470853
     7  N    0.000000   0.000000   0.000000   0.000000   0.000000   0.000000
     8  C    0.000000   0.000000   0.000000   0.000000   0.000000   0.000000
     9  C    0.000000   0.000000   0.000000   0.000000   0.000000   0.000000
    10  O    0.000000   0.000000   0.000000   0.000000   0.000000   0.000000
    11  N    0.000000   0.000000   0.000000   0.000000   0.000000   0.000000
    12  C    0.000000   0.000000   0.000000   0.000000   0.000000   0.000000
    13  C    0.000000   0.000000   0.000000   0.000000   0.000000   0.000000
    14  O    0.000000   0.000000   0.000000   0.000000   0.000000   0.000000
    15  C    0.000000   0.000000   0.000000   0.000000   0.000000   0.000000
    16  H    0.000000   0.000000   0.000000   0.000000   0.000000   0.000000
    17  H    0.000000   0.000000   0.000000   0.000000   0.000000   0.000000
    18  H    0.000000   0.000000   0.000000   0.000000   0.000000   0.000000
    19  H    0.000000   0.000000   0.000000   0.000000   0.000000   0.000000
               7          8          9         10         11         12
     1  C    0.000000   0.000000   0.000000   0.000000   0.000000   0.000000
     2  O    0.000000   0.000000   0.000000   0.000000   0.000000   0.000000
     3  N    0.000000   0.000000   0.000000   0.000000   0.000000   0.000000
     4  C    0.000000   0.000000   0.000000   0.000000   0.000000   0.000000
     5  C    0.000000   0.000000   0.000000   0.000000   0.000000   0.000000
     6  O    0.000000   0.000000   0.000000   0.000000   0.000000   0.000000
     7  N    5.552919   0.000000   0.000000   0.000000   0.000000   0.000000
     8  C    0.000000   3.812866   0.000000   0.000000   0.000000   0.000000
     9  C    0.000000   0.000000   3.696401   0.000000   0.000000   0.000000
    10  O    0.000000   0.000000   0.000000   6.191482   0.000000   0.000000
    11  N    0.000000   0.000000   0.000000   0.000000   5.269229   0.000000
    12  C    0.000000   0.000000   0.000000   0.000000   0.000000   3.610357
    13  C    0.000000   0.000000   0.000000   0.000000   0.000000   0.000000
    14  O    0.000000   0.000000   0.000000   0.000000   0.000000   0.000000
    15  C    0.000000   0.000000   0.000000   0.000000   0.000000   0.000000
    16  H    0.000000   0.000000   0.000000   0.000000   0.000000   0.000000
    17  H    0.000000   0.000000   0.000000   0.000000   0.000000   0.000000
    18  H    0.000000   0.000000   0.000000   0.000000   0.000000   0.000000
    19  H    0.000000   0.000000   0.000000   0.000000   0.000000   0.000000
              13         14         15         16         17         18
     1  C    0.000000   0.000000   0.000000   0.000000   0.000000   0.000000
     2  O    0.000000   0.000000   0.000000   0.000000   0.000000   0.000000
     3  N    0.000000   0.000000   0.000000   0.000000   0.000000   0.000000
     4  C    0.000000   0.000000   0.000000   0.000000   0.000000   0.000000
     5  C    0.000000   0.000000   0.000000   0.000000   0.000000   0.000000
     6  O    0.000000   0.000000   0.000000   0.000000   0.000000   0.000000
     7  N    0.000000   0.000000   0.000000   0.000000   0.000000   0.000000
     8  C    0.000000   0.000000   0.000000   0.000000   0.000000   0.000000
     9  C    0.000000   0.000000   0.000000   0.000000   0.000000   0.000000
    10  O    0.000000   0.000000   0.000000   0.000000   0.000000   0.000000
    11  N    0.000000   0.000000   0.000000   0.000000   0.000000   0.000000
    12  C    0.000000   0.000000   0.000000   0.000000   0.000000   0.000000
    13  C    4.083773   0.000000   0.000000   0.000000   0.000000   0.000000
    14  O    0.000000   6.087654   0.000000   0.000000   0.000000   0.000000
    15  C    0.000000   0.000000   3.065939   0.000000   0.000000   0.000000
    16  H    0.000000   0.000000   0.000000   0.801328   0.000000   0.000000
    17  H    0.000000   0.000000   0.000000   0.000000   0.297587   0.000000
    18  H    0.000000   0.000000   0.000000   0.000000   0.000000   0.844950
    19  H    0.000000   0.000000   0.000000   0.000000   0.000000   0.000000
              19
     1  C    0.000000
     2  O    0.000000
     3  N    0.000000
     4  C    0.000000
     5  C    0.000000
     6  O    0.000000
     7  N    0.000000
     8  C    0.000000
     9  C    0.000000
    10  O    0.000000
    11  N    0.000000
    12  C    0.000000
    13  C    0.000000
    14  O    0.000000
    15  C    0.000000
    16  H    0.000000
    17  H    0.000000
    18  H    0.000000
    19  H    1.706368
 Mulliken charges:
               1
     1  C    0.449072
     2  O   -0.183897
     3  N   -0.322582
     4  C    0.077650
     5  C    0.471461
     6  O   -0.470853
     7  N   -0.552919
     8  C    0.187134
     9  C    0.303599
    10  O   -0.191482
    11  N   -0.269229
    12  C    0.389643
    13  C   -0.083773
    14  O   -0.087654
    15  C    0.934061
    16  H    0.198672
    17  H    0.702413
    18  H    0.155050
    19  H   -0.706368
 Sum of Mulliken charges =   1.00000
 Mulliken charges with hydrogens summed into heavy atoms:
               1
     1  C    0.647744
     2  O   -0.183897
     3  N   -0.322582
     4  C    0.077650
     5  C    0.471461
     6  O   -0.470853
     7  N   -0.552919
     8  C    0.889547
     9  C    0.303599
    10  O   -0.191482
    11  N   -0.269229
    12  C   -0.161674
    13  C   -0.083773
    14  O   -0.087654
    15  C    0.934061
 Charge=              1.0000 electrons
 Dipole moment (field-independent basis, Debye):
    X=             15.8013    Y=              5.6960    Z=             93.9333  Tot=             95.4232
 N-N= 5.033595997715D+02 E-N=-7.714488939570D+02  KE=-1.605898463497D+02
 Leave Link  601 at Fri Jan  7 12:01:50 2022, MaxMem=   402653184 cpu:               2.0 elap:               0.3
 (Enter /work/01114/jfonner/frontera/gaussian/16rC.01/g16/l9999.exe)

 Test job not archived.
 1\1\GINC-C208-012\SP\RPM6\ZDO\C8H4N3O4(1+)\SA748948\07-Jan-2022\0\\#p 
 int=acc2e=12 pm6 charge nosymm\\Atom number=19\\1,1\C,0,3.42400002,0.9
 6498763,17.63099045\O,0,3.13600342,2.10999946,17.61199391\N,0,3.173004
 96,0.12899699,18.64699945\C,0,2.55900471,0.51600847,19.9030147\C,0,3.3
 4998801,-0.12200514,21.0140061\O,0,3.36600152,-1.3390105,21.13999871\N
 ,0,4.06699918,0.68799289,21.76798888\C,0,4.88800427,0.20499636,22.8509
 9854\C,0,4.35000563,0.76901044,24.17399087\O,0,4.16101162,1.98101482,2
 4.26899258\N,0,4.06500852,-0.11998297,25.15099103\C,0,3.72000682,0.313
 00568,26.51500903\C,0,1.13798326,-0.02100218,19.98301291\O,0,0.3929990
 8,0.39401168,18.82399841\C,0,0.48599834,0.50100263,21.16700089\H,0,3.9
 4674061,0.55967503,16.78994112\H,0,5.91043476,0.48869187,22.71296682\H
 ,0,4.57410234,0.19197947,27.14807578\H,0,2.86415818,-0.20218905,26.898
 41155\\Version=ES64L-G16RevC.01\HF=-2.3753833\RMSD=6.580e-09\Dipole=0.
 274996,1.3363381,-3.4940395\PG=C01 [X(C8H4N3O4)]\\@


 HOW IS IT THAT THE SKY FEEDS THE STARS?

                           -- LUCRETIUS
 Job cpu time:       0 days  0 hours  5 minutes  4.4 seconds.
 Elapsed time:       0 days  0 hours  0 minutes 49.7 seconds.
 File lengths (MBytes):  RWF=      6 Int=      0 D2E=      0 Chk=      2 Scr=      1
 Normal termination of Gaussian 16 at Fri Jan  7 12:01:51 2022.
