 Entering Gaussian System, Link 0=g16
 Input=NCCONCCOCCCNCCOCCCNCCOCCNCCNNCCONCCOCCCNCCOCOCNCCOCOCNCCOCCCNCCOCO_1.gjf
 Output=NCCONCCOCCCNCCOCCCNCCOCCNCCNNCCONCCOCCCNCCOCOCNCCOCOCNCCOCCCNCCOCO_1.log
 Initial command:
 /work/01114/jfonner/frontera/gaussian/16rC.01/g16/l1.exe "/scratch1/08249/sa748948/lsqc/23625606/Gau-119044.inp" -scrdir="/scratch1/08249/sa748948/lsqc/23625606/"
 Entering Link 1 = /work/01114/jfonner/frontera/gaussian/16rC.01/g16/l1.exe PID=    119056.
  
 Copyright (c) 1988-2019, Gaussian, Inc.  All Rights Reserved.
  
 This is part of the Gaussian(R) 16 program.  It is based on
 the Gaussian(R) 09 system (copyright 2009, Gaussian, Inc.),
 the Gaussian(R) 03 system (copyright 2003, Gaussian, Inc.),
 the Gaussian(R) 98 system (copyright 1998, Gaussian, Inc.),
 the Gaussian(R) 94 system (copyright 1995, Gaussian, Inc.),
 the Gaussian 92(TM) system (copyright 1992, Gaussian, Inc.),
 the Gaussian 90(TM) system (copyright 1990, Gaussian, Inc.),
 the Gaussian 88(TM) system (copyright 1988, Gaussian, Inc.),
 the Gaussian 86(TM) system (copyright 1986, Carnegie Mellon
 University), and the Gaussian 82(TM) system (copyright 1983,
 Carnegie Mellon University). Gaussian is a federally registered
 trademark of Gaussian, Inc.
  
 This software contains proprietary and confidential information,
 including trade secrets, belonging to Gaussian, Inc.
  
 This software is provided under written license and may be
 used, copied, transmitted, or stored only in accord with that
 written license.
  
 The following legend is applicable only to US Government
 contracts under FAR:
  
                    RESTRICTED RIGHTS LEGEND
  
 Use, reproduction and disclosure by the US Government is
 subject to restrictions as set forth in subparagraphs (a)
 and (c) of the Commercial Computer Software - Restricted
 Rights clause in FAR 52.227-19.
  
 Gaussian, Inc.
 340 Quinnipiac St., Bldg. 40, Wallingford CT 06492
  
  
 ---------------------------------------------------------------
 Warning -- This program may not be used in any manner that
 competes with the business of Gaussian, Inc. or will provide
 assistance to any competitor of Gaussian, Inc.  The licensee
 of this program is prohibited from giving any competitor of
 Gaussian, Inc. access to this program.  By using this program,
 the user acknowledges that Gaussian, Inc. is engaged in the
 business of creating and licensing software in the field of
 computational chemistry and represents and warrants to the
 licensee that it is not a competitor of Gaussian, Inc. and that
 it will not use this program in any manner prohibited above.
 ---------------------------------------------------------------
  

 Cite this work as:
 Gaussian 16, Revision C.01,
 M. J. Frisch, G. W. Trucks, H. B. Schlegel, G. E. Scuseria, 
 M. A. Robb, J. R. Cheeseman, G. Scalmani, V. Barone, 
 G. A. Petersson, H. Nakatsuji, X. Li, M. Caricato, A. V. Marenich, 
 J. Bloino, B. G. Janesko, R. Gomperts, B. Mennucci, H. P. Hratchian, 
 J. V. Ortiz, A. F. Izmaylov, J. L. Sonnenberg, D. Williams-Young, 
 F. Ding, F. Lipparini, F. Egidi, J. Goings, B. Peng, A. Petrone, 
 T. Henderson, D. Ranasinghe, V. G. Zakrzewski, J. Gao, N. Rega, 
 G. Zheng, W. Liang, M. Hada, M. Ehara, K. Toyota, R. Fukuda, 
 J. Hasegawa, M. Ishida, T. Nakajima, Y. Honda, O. Kitao, H. Nakai, 
 T. Vreven, K. Throssell, J. A. Montgomery, Jr., J. E. Peralta, 
 F. Ogliaro, M. J. Bearpark, J. J. Heyd, E. N. Brothers, K. N. Kudin, 
 V. N. Staroverov, T. A. Keith, R. Kobayashi, J. Normand, 
 K. Raghavachari, A. P. Rendell, J. C. Burant, S. S. Iyengar, 
 J. Tomasi, M. Cossi, J. M. Millam, M. Klene, C. Adamo, R. Cammi, 
 J. W. Ochterski, R. L. Martin, K. Morokuma, O. Farkas, 
 J. B. Foresman, and D. J. Fox, Gaussian, Inc., Wallingford CT, 2019.
 
 ******************************************
 Gaussian 16:  ES64L-G16RevC.01  3-Jul-2019
                12-Jan-2022 
 ******************************************
 %chk=NCCONCCOCCCNCCOCCCNCCOCCNCCNNCCONCCOCCCNCCOCOCNCCOCOCNCCOCCCNCCOCO_1.chk
 %nproc=56
 Will use up to   56 processors via shared memory.
 %mem=3gb
 ---------------------
 #p pm6 pop=npa nosymm
 ---------------------
 1/38=1,172=1/1;
 2/12=2,15=1,17=6,18=5,40=1/2;
 3/5=2,25=1,41=3900000/1,2,3;
 4/35=1/1;
 5/5=2,35=1,38=5/2;
 6/7=2,8=2,9=2,10=2,28=1,40=-1/1,7;
 99/5=1,9=1/99;
 Leave Link    1 at Wed Jan 12 18:27:08 2022, MaxMem=   402653184 cpu:               2.3 elap:               0.3
 (Enter /work/01114/jfonner/frontera/gaussian/16rC.01/g16/l101.exe)
 --------------
 Atom number=15
 --------------
 Symbolic Z-matrix:
 Charge =  3 Multiplicity = 1
 n                    -6.81505  -0.66801   1.60708 
 c                    -5.71396   0.00197   2.37298 
 c                    -4.35695  -0.67296   2.5879 
 o                    -4.21192  -1.87003   2.49193 
 n                    -3.38098   0.12501   2.95298 
 c                    -2.06208  -0.38996   3.274 
 c                    -1.63603   0.17497   4.60006 
 o                    -1.74408   1.356     4.86201 
 n                    -1.09497  -0.70006   5.41502 
 c                    -0.57193  -0.31106   6.669 
 c                    -0.99299  -0.04496   2.19693 
 c                     0.39001  -0.48794   2.64003 
 c                    -1.37801  -0.66198   0.89709 
 h                     0.42348  -0.69387   6.75572 
 h                    -1.15902  -0.73215   7.45825 
 
 ITRead=  0  0  0  0  0  0  0  0  0  0  0  0  0  0  0
 MicOpt= -1 -1 -1 -1 -1 -1 -1 -1 -1 -1 -1 -1 -1 -1 -1
 NAtoms=     15 NQM=       15 NQMF=       0 NMMI=      0 NMMIF=      0
                NMic=       0 NMicF=      0.
                    Isotopes and Nuclear Properties:
 (Nuclear quadrupole moments (NQMom) in fm**2, nuclear magnetic moments (NMagM)
  in nuclear magnetons)

  Atom         1           2           3           4           5           6           7           8           9          10
 IAtWgt=          14          12          12          16          14          12          12          16          14          12
 AtmWgt=  14.0030740  12.0000000  12.0000000  15.9949146  14.0030740  12.0000000  12.0000000  15.9949146  14.0030740  12.0000000
 NucSpn=           2           0           0           0           2           0           0           0           2           0
 AtZEff=  -0.0000000  -0.0000000  -0.0000000  -0.0000000  -0.0000000  -0.0000000  -0.0000000  -0.0000000  -0.0000000  -0.0000000
 NQMom=    2.0440000   0.0000000   0.0000000   0.0000000   2.0440000   0.0000000   0.0000000   0.0000000   2.0440000   0.0000000
 NMagM=    0.4037610   0.0000000   0.0000000   0.0000000   0.4037610   0.0000000   0.0000000   0.0000000   0.4037610   0.0000000
 AtZNuc=   7.0000000   6.0000000   6.0000000   8.0000000   7.0000000   6.0000000   6.0000000   8.0000000   7.0000000   6.0000000

  Atom        11          12          13          14          15
 IAtWgt=          12          12          12           1           1
 AtmWgt=  12.0000000  12.0000000  12.0000000   1.0078250   1.0078250
 NucSpn=           0           0           0           1           1
 AtZEff=  -0.0000000  -0.0000000  -0.0000000  -0.0000000  -0.0000000
 NQMom=    0.0000000   0.0000000   0.0000000   0.0000000   0.0000000
 NMagM=    0.0000000   0.0000000   0.0000000   2.7928460   2.7928460
 AtZNuc=   6.0000000   6.0000000   6.0000000   1.0000000   1.0000000
 Leave Link  101 at Wed Jan 12 18:27:08 2022, MaxMem=   402653184 cpu:               5.6 elap:               0.8
 (Enter /work/01114/jfonner/frontera/gaussian/16rC.01/g16/l202.exe)
                          Input orientation:                          
 ---------------------------------------------------------------------
 Center     Atomic      Atomic             Coordinates (Angstroms)
 Number     Number       Type             X           Y           Z
 ---------------------------------------------------------------------
      1          7           0       -6.815047   -0.668008    1.607077
      2          6           0       -5.713960    0.001974    2.372980
      3          6           0       -4.356948   -0.672965    2.587903
      4          8           0       -4.211915   -1.870032    2.491930
      5          7           0       -3.380983    0.125008    2.952976
      6          6           0       -2.062076   -0.389958    3.274004
      7          6           0       -1.636033    0.174966    4.600060
      8          8           0       -1.744076    1.356001    4.862007
      9          7           0       -1.094969   -0.700064    5.415016
     10          6           0       -0.571931   -0.311059    6.669003
     11          6           0       -0.992989   -0.044960    2.196926
     12          6           0        0.390008   -0.487936    2.640030
     13          6           0       -1.378011   -0.661982    0.897088
     14          1           0        0.423478   -0.693867    6.755716
     15          1           0       -1.159019   -0.732148    7.458250
 ---------------------------------------------------------------------
                    Distance matrix (angstroms):
                    1          2          3          4          5
     1  N    0.000000
     2  C    1.499292   0.000000
     3  C    2.646563   1.530757   0.000000
     4  O    3.000687   2.403059   1.209634   0.000000
     5  N    3.772680   2.407138   1.312458   2.209795   0.000000
     6  C    5.044471   3.781760   2.411900   2.724714   1.451814
     7  C    6.040757   4.649655   3.488716   3.906584   2.400048
     8  O    6.356566   4.877358   4.014393   4.702635   2.799858
     9  N    6.871734   5.575116   4.316689   4.430419   3.459515
    10  C    8.045309   6.707776   5.577875   5.755676   4.678651
    11  C    5.884936   4.724485   3.444339   3.712061   2.510580
    12  C    7.280950   6.129417   4.750847   4.807267   3.833276
    13  C    5.483200   4.628125   3.425352   3.468993   2.976226
    14  H    8.882870   7.573685   6.342205   6.407035   5.441075
    15  H    8.138242   6.866323   5.826708   5.939637   5.096011
                    6          7          8          9         10
     6  C    0.000000
     7  C    1.503023   0.000000
     8  O    2.381439   1.214551   0.000000
     9  N    2.369683   1.312472   2.225885   0.000000
    10  C    3.708473   2.376774   2.723646   1.413285   0.000000
    11  C    1.556299   2.497384   3.103140   3.285676   4.499729
    12  C    2.534609   2.895860   3.590488   3.154474   4.145990
    13  C    2.488307   3.805136   4.463949   4.526946   5.838485
    14  H    4.288666   3.105367   3.533607   2.025634   1.070000
    15  H    4.294243   3.036387   3.382771   2.044489   1.070000
                   11         12         13         14         15
    11  C    0.000000
    12  C    1.518305   0.000000
    13  C    1.489476   2.488781   0.000000
    14  H    4.817678   4.120970   6.129428   0.000000
    15  H    5.308608   5.066988   6.565190   1.731853   0.000000
 Symmetry turned off by external request.
 Stoichiometry    C8H2N3O2(3+)
 Framework group  C1[X(C8H2N3O2)]
 Deg. of freedom    39
 Full point group                 C1      NOp   1
 Rotational constants (GHZ):           1.3778499           0.5109391           0.4262082
 Leave Link  202 at Wed Jan 12 18:27:09 2022, MaxMem=   402653184 cpu:               2.8 elap:               0.4
 (Enter /work/01114/jfonner/frontera/gaussian/16rC.01/g16/l301.exe)
 Standard basis: VSTO-6G (5D, 7F)
 Ernie: Thresh=  0.10000D-02 Tol=  0.10000D-05 Strict=F.
  NNHCO=     0 NNPyr=     0 NCTC=     0               EPep=         0.000000000
    EC=       274.555673690  ECS=         3.364980345   EG=         0.351711551
   EHC=         0.001144410  EAt=       -75.086781620  AtH=         3.074761544
 EPDDG=         0.000000000  ECC=       278.273509996 EAtT=        78.161543164
    54 basis functions,   324 primitive gaussians,    54 cartesian basis functions
    29 alpha electrons       29 beta electrons
       nuclear repulsion energy       356.4350531598 Hartrees.
 IExCor=    0 DFT=F Ex=HF Corr=None ExCW=0 ScaHFX=  1.000000
 ScaDFX=  1.000000  1.000000  1.000000  1.000000 ScalE2=  1.000000  1.000000
 IRadAn=      5 IRanWt=     -1 IRanGd=            0 ICorTp=0 IEmpDi=  4
 Integral buffers will be    131072 words long.
 Regular integral format.
 Two-electron integral symmetry is turned off.
 Leave Link  301 at Wed Jan 12 18:27:09 2022, MaxMem=   402653184 cpu:               3.1 elap:               0.4
 (Enter /work/01114/jfonner/frontera/gaussian/16rC.01/g16/l302.exe)
 Do NDO integrals.
 NPDir=0 NMtPBC=     1 NCelOv=     1 NCel=       1 NClECP=     1 NCelD=      1
         NCelK=      1 NCelE2=     1 NClLst=     1 CellRange=     0.0.
 One-electron integrals computed using PRISM.
 NBasis=    54 RedAO= F EigKep=  0.00D+00  NBF=    54
 NBsUse=    54 1.00D-04 EigRej=  0.00D+00 NBFU=    54
 Leave Link  302 at Wed Jan 12 18:27:12 2022, MaxMem=   402653184 cpu:              23.0 elap:               3.2
 (Enter /work/01114/jfonner/frontera/gaussian/16rC.01/g16/l303.exe)
 DipDrv:  MaxL=1.
 Leave Link  303 at Wed Jan 12 18:27:13 2022, MaxMem=   402653184 cpu:               3.4 elap:               0.5
 (Enter /work/01114/jfonner/frontera/gaussian/16rC.01/g16/l401.exe)
 Simple Huckel Guess.
 JPrj=0 DoOrth=F DoCkMO=F.
 Leave Link  401 at Wed Jan 12 18:27:15 2022, MaxMem=   402653184 cpu:              12.3 elap:               1.7
 (Enter /work/01114/jfonner/frontera/gaussian/16rC.01/g16/l502.exe)
 Keep J ints in memory in canonical form, NReq=868557.
 FoFCou: FMM=F IPFlag=           0 FMFlag=           0 FMFlg1=           0
         NFxFlg=           0 DoJE=F BraDBF=F KetDBF=F FulRan=T
         wScrn=  0.000000 ICntrl=       600 IOpCl=  2 I1Cent=           0 NGrid=           0
         NMat0=    1 NMatS0=    132 NMatT0=    0 NMatD0=    1 NMtDS0=    0 NMtDT0=    0
 Symmetry not used in FoFCou.
 Two-electron integral symmetry not used.
 Closed shell SCF:
 Using DIIS extrapolation, IDIIS=  1040.
 Overlap will be assumed to be unity.
 NGot=   402653184 LenX=   402575458 LenY=   402572101
 Requested convergence on RMS density matrix=1.00D-08 within 128 cycles.
 Requested convergence on MAX density matrix=1.00D-06.
 Requested convergence on             energy=1.00D-06.
 No special actions if energy rises.

 Cycle   1  Pass 1  IDiag  1:
 E=  3.46063261991611    
 DIIS: error= 4.61D-02 at cycle   1 NSaved=   1.
 NSaved= 1 IEnMin= 1 EnMin=  3.46063261991611     IErMin= 1 ErrMin= 4.61D-02
 ErrMax= 4.61D-02  0.00D+00 EMaxC= 1.00D-01 BMatC= 2.47D-01 BMatP= 2.47D-01
 IDIUse=3 WtCom= 5.39D-01 WtEn= 4.61D-01
 Coeff-Com:  0.100D+01
 Coeff-En:   0.100D+01
 Coeff:      0.100D+01
 GapD=    2.000 DampG=2.000 DampE=0.500 DampFc=1.0000 IDamp=-1.
 RMSDP=4.86D-02 MaxDP=6.79D-01              OVMax= 0.00D+00

 Cycle   2  Pass 1  IDiag  1:
 E=  7.46812955822946     Delta-E=        4.007496938313 Rises=F Damp=F
 DIIS: error= 7.82D-02 at cycle   2 NSaved=   2.
 NSaved= 2 IEnMin= 1 EnMin=  3.46063261991611     IErMin= 1 ErrMin= 4.61D-02
 ErrMax= 7.82D-02  0.00D+00 EMaxC= 1.00D-01 BMatC= 5.45D-01 BMatP= 2.47D-01
 IDIUse=2 WtCom= 0.00D+00 WtEn= 1.00D+00
 Coeff-En:   0.857D+00 0.143D+00
 Coeff:      0.857D+00 0.143D+00
 RMSDP=4.36D-02 MaxDP=5.99D-01 DE= 4.01D+00 OVMax= 0.00D+00

 Cycle   3  Pass 1  IDiag  1:
 E=  2.46132296610597     Delta-E=       -5.006806592123 Rises=F Damp=F
 DIIS: error= 2.19D-02 at cycle   3 NSaved=   3.
 NSaved= 3 IEnMin= 3 EnMin=  2.46132296610597     IErMin= 3 ErrMin= 2.19D-02
 ErrMax= 2.19D-02  0.00D+00 EMaxC= 1.00D-01 BMatC= 2.80D-02 BMatP= 2.47D-01
 IDIUse=3 WtCom= 7.81D-01 WtEn= 2.19D-01
 Coeff-Com: -0.187D-01 0.758D-01 0.943D+00
 Coeff-En:   0.000D+00 0.000D+00 0.100D+01
 Coeff:     -0.146D-01 0.591D-01 0.955D+00
 RMSDP=8.25D-03 MaxDP=1.16D-01 DE=-5.01D+00 OVMax= 0.00D+00

 Cycle   4  Pass 1  IDiag  1:
 E=  2.36588732957563     Delta-E=       -0.095435636530 Rises=F Damp=F
 DIIS: error= 1.12D-02 at cycle   4 NSaved=   4.
 NSaved= 4 IEnMin= 4 EnMin=  2.36588732957563     IErMin= 4 ErrMin= 1.12D-02
 ErrMax= 1.12D-02  0.00D+00 EMaxC= 1.00D-01 BMatC= 1.00D-02 BMatP= 2.80D-02
 IDIUse=3 WtCom= 8.88D-01 WtEn= 1.12D-01
 Coeff-Com: -0.139D+00 0.217D-01 0.155D+00 0.962D+00
 Coeff-En:   0.000D+00 0.000D+00 0.000D+00 0.100D+01
 Coeff:     -0.123D+00 0.193D-01 0.137D+00 0.966D+00
 RMSDP=5.78D-03 MaxDP=8.52D-02 DE=-9.54D-02 OVMax= 0.00D+00

 Cycle   5  Pass 1  IDiag  3:
 E=  2.32022587891561     Delta-E=       -0.045661450660 Rises=F Damp=F
 DIIS: error= 3.28D-03 at cycle   5 NSaved=   5.
 NSaved= 5 IEnMin= 5 EnMin=  2.32022587891561     IErMin= 5 ErrMin= 3.28D-03
 ErrMax= 3.28D-03  0.00D+00 EMaxC= 1.00D-01 BMatC= 9.80D-04 BMatP= 1.00D-02
 IDIUse=3 WtCom= 9.67D-01 WtEn= 3.28D-02
 Coeff-Com:  0.171D-01 0.471D-02-0.149D+00 0.259D-01 0.110D+01
 Coeff-En:   0.000D+00 0.000D+00 0.000D+00 0.000D+00 0.100D+01
 Coeff:      0.166D-01 0.456D-02-0.144D+00 0.250D-01 0.110D+01
 Gap=     0.137 Goal=   None    Shift=    0.000
 RMSDP=2.76D-03 MaxDP=3.29D-02 DE=-4.57D-02 OVMax= 5.91D-02

 Cycle   6  Pass 1  IDiag  3:
 E=  2.31230917969469     Delta-E=       -0.007916699221 Rises=F Damp=F
 DIIS: error= 1.70D-03 at cycle   6 NSaved=   6.
 NSaved= 6 IEnMin= 6 EnMin=  2.31230917969469     IErMin= 6 ErrMin= 1.70D-03
 ErrMax= 1.70D-03  0.00D+00 EMaxC= 1.00D-01 BMatC= 2.24D-04 BMatP= 9.80D-04
 IDIUse=3 WtCom= 9.83D-01 WtEn= 1.70D-02
 Coeff-Com:  0.102D-01-0.534D-02 0.201D-01-0.630D-01-0.170D+00 0.121D+01
 Coeff-En:   0.000D+00 0.000D+00 0.000D+00 0.000D+00 0.000D+00 0.100D+01
 Coeff:      0.100D-01-0.524D-02 0.198D-01-0.620D-01-0.167D+00 0.120D+01
 Gap=     0.140 Goal=   None    Shift=    0.000
 RMSDP=1.87D-03 MaxDP=1.91D-02 DE=-7.92D-03 OVMax= 5.28D-02

 Cycle   7  Pass 1  IDiag  3:
 E=  2.30993911971916     Delta-E=       -0.002370059976 Rises=F Damp=F
 DIIS: error= 1.73D-03 at cycle   7 NSaved=   7.
 NSaved= 7 IEnMin= 7 EnMin=  2.30993911971916     IErMin= 6 ErrMin= 1.70D-03
 ErrMax= 1.73D-03  0.00D+00 EMaxC= 1.00D-01 BMatC= 2.00D-04 BMatP= 2.24D-04
 IDIUse=3 WtCom= 9.83D-01 WtEn= 1.70D-02
 Coeff-Com: -0.495D-02-0.788D-02-0.212D-01 0.117D+00 0.884D-01-0.750D+00
 Coeff-Com:  0.158D+01
 Coeff-En:   0.000D+00 0.000D+00 0.000D+00 0.000D+00 0.000D+00 0.000D+00
 Coeff-En:   0.100D+01
 Coeff:     -0.487D-02-0.774D-02-0.208D-01 0.115D+00 0.869D-01-0.737D+00
 Coeff:      0.157D+01
 Gap=     0.142 Goal=   None    Shift=    0.000
 RMSDP=1.31D-03 MaxDP=1.30D-02 DE=-2.37D-03 OVMax= 3.10D-02

 Cycle   8  Pass 1  IDiag  3:
 E=  2.30858282940295     Delta-E=       -0.001356290316 Rises=F Damp=F
 DIIS: error= 1.69D-03 at cycle   8 NSaved=   8.
 NSaved= 8 IEnMin= 8 EnMin=  2.30858282940295     IErMin= 8 ErrMin= 1.69D-03
 ErrMax= 1.69D-03  0.00D+00 EMaxC= 1.00D-01 BMatC= 1.47D-04 BMatP= 2.00D-04
 IDIUse=3 WtCom= 9.83D-01 WtEn= 1.69D-02
 Coeff-Com:  0.117D-01-0.302D-02-0.179D-01-0.297D-01 0.510D-01 0.807D+00
 Coeff-Com: -0.303D+01 0.321D+01
 Coeff-En:   0.000D+00 0.000D+00 0.000D+00 0.000D+00 0.000D+00 0.000D+00
 Coeff-En:   0.000D+00 0.100D+01
 Coeff:      0.115D-01-0.297D-02-0.176D-01-0.292D-01 0.502D-01 0.793D+00
 Coeff:     -0.298D+01 0.317D+01
 Gap=     0.143 Goal=   None    Shift=    0.000
 RMSDP=1.93D-03 MaxDP=1.68D-02 DE=-1.36D-03 OVMax= 3.65D-02

 Cycle   9  Pass 1  IDiag  3:
 E=  2.30714626320901     Delta-E=       -0.001436566194 Rises=F Damp=F
 DIIS: error= 1.01D-03 at cycle   9 NSaved=   9.
 NSaved= 9 IEnMin= 9 EnMin=  2.30714626320901     IErMin= 9 ErrMin= 1.01D-03
 ErrMax= 1.01D-03  0.00D+00 EMaxC= 1.00D-01 BMatC= 3.75D-05 BMatP= 1.47D-04
 IDIUse=3 WtCom= 9.90D-01 WtEn= 1.01D-02
 Coeff-Com:  0.298D-02 0.116D-03 0.827D-02-0.345D-01-0.681D-01 0.493D+00
 Coeff-Com: -0.516D+00-0.462D+00 0.158D+01
 Coeff-En:   0.000D+00 0.000D+00 0.000D+00 0.000D+00 0.000D+00 0.000D+00
 Coeff-En:   0.000D+00 0.000D+00 0.100D+01
 Coeff:      0.295D-02 0.115D-03 0.818D-02-0.342D-01-0.675D-01 0.488D+00
 Coeff:     -0.511D+00-0.457D+00 0.157D+01
 Gap=     0.145 Goal=   None    Shift=    0.000
 RMSDP=9.88D-04 MaxDP=9.35D-03 DE=-1.44D-03 OVMax= 1.65D-02

 Cycle  10  Pass 1  IDiag  3:
 E=  2.30672345764748     Delta-E=       -0.000422805562 Rises=F Damp=F
 DIIS: error= 2.97D-04 at cycle  10 NSaved=  10.
 NSaved=10 IEnMin=10 EnMin=  2.30672345764748     IErMin=10 ErrMin= 2.97D-04
 ErrMax= 2.97D-04  0.00D+00 EMaxC= 1.00D-01 BMatC= 6.34D-06 BMatP= 3.75D-05
 IDIUse=3 WtCom= 9.97D-01 WtEn= 2.97D-03
 Coeff-Com: -0.156D-02 0.360D-03-0.194D-02 0.772D-02 0.112D-02-0.223D+00
 Coeff-Com:  0.534D+00-0.170D+00-0.602D+00 0.145D+01
 Coeff-En:   0.000D+00 0.000D+00 0.000D+00 0.000D+00 0.000D+00 0.000D+00
 Coeff-En:   0.000D+00 0.000D+00 0.000D+00 0.100D+01
 Coeff:     -0.155D-02 0.359D-03-0.194D-02 0.769D-02 0.112D-02-0.222D+00
 Coeff:      0.533D+00-0.170D+00-0.600D+00 0.145D+01
 Gap=     0.145 Goal=   None    Shift=    0.000
 RMSDP=3.42D-04 MaxDP=2.48D-03 DE=-4.23D-04 OVMax= 7.03D-03

 Cycle  11  Pass 1  IDiag  3:
 E=  2.30662932009614     Delta-E=       -0.000094137551 Rises=F Damp=F
 DIIS: error= 1.81D-04 at cycle  11 NSaved=  11.
 NSaved=11 IEnMin=11 EnMin=  2.30662932009614     IErMin=11 ErrMin= 1.81D-04
 ErrMax= 1.81D-04  0.00D+00 EMaxC= 1.00D-01 BMatC= 2.95D-06 BMatP= 6.34D-06
 IDIUse=3 WtCom= 9.98D-01 WtEn= 1.81D-03
 Coeff-Com:  0.102D-02 0.189D-03 0.363D-02-0.617D-02 0.594D-03 0.159D+00
 Coeff-Com: -0.500D+00 0.263D+00 0.421D+00-0.144D+01 0.210D+01
 Coeff-En:   0.000D+00 0.000D+00 0.000D+00 0.000D+00 0.000D+00 0.000D+00
 Coeff-En:   0.000D+00 0.000D+00 0.000D+00 0.000D+00 0.100D+01
 Coeff:      0.102D-02 0.188D-03 0.362D-02-0.616D-02 0.592D-03 0.159D+00
 Coeff:     -0.499D+00 0.263D+00 0.421D+00-0.144D+01 0.210D+01
 Gap=     0.145 Goal=   None    Shift=    0.000
 RMSDP=4.52D-04 MaxDP=3.84D-03 DE=-9.41D-05 OVMax= 1.06D-02

 Cycle  12  Pass 1  IDiag  3:
 E=  2.30653664870715     Delta-E=       -0.000092671389 Rises=F Damp=F
 DIIS: error= 1.19D-04 at cycle  12 NSaved=  12.
 NSaved=12 IEnMin=12 EnMin=  2.30653664870715     IErMin=12 ErrMin= 1.19D-04
 ErrMax= 1.19D-04  0.00D+00 EMaxC= 1.00D-01 BMatC= 1.63D-06 BMatP= 2.95D-06
 IDIUse=3 WtCom= 9.99D-01 WtEn= 1.19D-03
 Coeff-Com: -0.349D-04-0.143D-03-0.610D-03-0.293D-02-0.231D-02 0.106D-02
 Coeff-Com:  0.146D+00-0.195D+00-0.102D+00 0.520D+00-0.144D+01 0.208D+01
 Coeff-En:   0.000D+00 0.000D+00 0.000D+00 0.000D+00 0.000D+00 0.000D+00
 Coeff-En:   0.000D+00 0.000D+00 0.000D+00 0.000D+00 0.000D+00 0.100D+01
 Coeff:     -0.348D-04-0.143D-03-0.609D-03-0.293D-02-0.230D-02 0.106D-02
 Coeff:      0.145D+00-0.195D+00-0.102D+00 0.519D+00-0.144D+01 0.208D+01
 Gap=     0.145 Goal=   None    Shift=    0.000
 RMSDP=5.97D-04 MaxDP=4.89D-03 DE=-9.27D-05 OVMax= 1.50D-02

 Cycle  13  Pass 1  IDiag  3:
 E=  2.30644828688582     Delta-E=       -0.000088361821 Rises=F Damp=F
 DIIS: error= 1.03D-04 at cycle  13 NSaved=  13.
 NSaved=13 IEnMin=13 EnMin=  2.30644828688582     IErMin=13 ErrMin= 1.03D-04
 ErrMax= 1.03D-04  0.00D+00 EMaxC= 1.00D-01 BMatC= 1.07D-06 BMatP= 1.63D-06
 IDIUse=3 WtCom= 9.99D-01 WtEn= 1.03D-03
 Coeff-Com:  0.218D-04-0.132D-03 0.592D-03 0.262D-02-0.375D-02 0.183D-01
 Coeff-Com: -0.394D-01 0.401D-01 0.631D-02-0.223D+00 0.467D+00-0.873D+00
 Coeff-Com:  0.160D+01
 Coeff-En:   0.000D+00 0.000D+00 0.000D+00 0.000D+00 0.000D+00 0.000D+00
 Coeff-En:   0.000D+00 0.000D+00 0.000D+00 0.000D+00 0.000D+00 0.000D+00
 Coeff-En:   0.100D+01
 Coeff:      0.217D-04-0.132D-03 0.591D-03 0.262D-02-0.375D-02 0.183D-01
 Coeff:     -0.394D-01 0.400D-01 0.630D-02-0.222D+00 0.467D+00-0.873D+00
 Coeff:      0.160D+01
 Gap=     0.145 Goal=   None    Shift=    0.000
 RMSDP=3.68D-04 MaxDP=3.04D-03 DE=-8.84D-05 OVMax= 1.00D-02

 Cycle  14  Pass 1  IDiag  3:
 E=  2.30640368745247     Delta-E=       -0.000044599433 Rises=F Damp=F
 DIIS: error= 9.35D-05 at cycle  14 NSaved=  14.
 NSaved=14 IEnMin=14 EnMin=  2.30640368745247     IErMin=14 ErrMin= 9.35D-05
 ErrMax= 9.35D-05  0.00D+00 EMaxC= 1.00D-01 BMatC= 7.72D-07 BMatP= 1.07D-06
 IDIUse=1 WtCom= 1.00D+00 WtEn= 0.00D+00
 Coeff-Com: -0.817D-04-0.725D-04 0.825D-04 0.153D-03-0.695D-03 0.258D-02
 Coeff-Com: -0.187D-01 0.104D-01-0.259D-02 0.132D-01 0.135D-01 0.196D+00
 Coeff-Com: -0.156D+01 0.235D+01
 Coeff:     -0.817D-04-0.725D-04 0.825D-04 0.153D-03-0.695D-03 0.258D-02
 Coeff:     -0.187D-01 0.104D-01-0.259D-02 0.132D-01 0.135D-01 0.196D+00
 Coeff:     -0.156D+01 0.235D+01
 Gap=     0.145 Goal=   None    Shift=    0.000
 RMSDP=4.71D-04 MaxDP=3.91D-03 DE=-4.46D-05 OVMax= 1.35D-02

 Cycle  15  Pass 1  IDiag  3:
 E=  2.30635674323867     Delta-E=       -0.000046944214 Rises=F Damp=F
 DIIS: error= 8.40D-05 at cycle  15 NSaved=  15.
 NSaved=15 IEnMin=15 EnMin=  2.30635674323867     IErMin=15 ErrMin= 8.40D-05
 ErrMax= 8.40D-05  0.00D+00 EMaxC= 1.00D-01 BMatC= 5.66D-07 BMatP= 7.72D-07
 IDIUse=1 WtCom= 1.00D+00 WtEn= 0.00D+00
 Coeff-Com: -0.621D-04-0.104D-03 0.126D-02-0.189D-02-0.107D-01 0.380D-01
 Coeff-Com: -0.104D-01-0.497D-01 0.648D-01-0.258D-01-0.242D+00 0.693D+00
 Coeff-Com: -0.638D+00-0.694D+00 0.188D+01
 Coeff:     -0.621D-04-0.104D-03 0.126D-02-0.189D-02-0.107D-01 0.380D-01
 Coeff:     -0.104D-01-0.497D-01 0.648D-01-0.258D-01-0.242D+00 0.693D+00
 Coeff:     -0.638D+00-0.694D+00 0.188D+01
 Gap=     0.145 Goal=   None    Shift=    0.000
 RMSDP=3.90D-04 MaxDP=3.40D-03 DE=-4.69D-05 OVMax= 1.15D-02

 Cycle  16  Pass 1  IDiag  3:
 E=  2.30632399311327     Delta-E=       -0.000032750125 Rises=F Damp=F
 DIIS: error= 8.03D-05 at cycle  16 NSaved=  16.
 NSaved=16 IEnMin=16 EnMin=  2.30632399311327     IErMin=16 ErrMin= 8.03D-05
 ErrMax= 8.03D-05  0.00D+00 EMaxC= 1.00D-01 BMatC= 4.15D-07 BMatP= 5.66D-07
 IDIUse=1 WtCom= 1.00D+00 WtEn= 0.00D+00
 Coeff-Com: -0.138D-03-0.563D-04 0.322D-04 0.281D-03-0.905D-04-0.371D-02
 Coeff-Com:  0.228D-01-0.343D-01-0.104D-01 0.565D-01-0.937D-01 0.297D+00
 Coeff-Com: -0.378D+00 0.757D-02-0.806D+00 0.194D+01
 Coeff:     -0.138D-03-0.563D-04 0.322D-04 0.281D-03-0.905D-04-0.371D-02
 Coeff:      0.228D-01-0.343D-01-0.104D-01 0.565D-01-0.937D-01 0.297D+00
 Coeff:     -0.378D+00 0.757D-02-0.806D+00 0.194D+01
 Gap=     0.145 Goal=   None    Shift=    0.000
 RMSDP=4.47D-04 MaxDP=3.95D-03 DE=-3.28D-05 OVMax= 1.35D-02

 Cycle  17  Pass 1  IDiag  3:
 E=  2.30629442643010     Delta-E=       -0.000029566683 Rises=F Damp=F
 DIIS: error= 7.15D-05 at cycle  17 NSaved=  17.
 NSaved=17 IEnMin=17 EnMin=  2.30629442643010     IErMin=17 ErrMin= 7.15D-05
 ErrMax= 7.15D-05  0.00D+00 EMaxC= 1.00D-01 BMatC= 3.10D-07 BMatP= 4.15D-07
 IDIUse=1 WtCom= 1.00D+00 WtEn= 0.00D+00
 Coeff-Com: -0.144D-04-0.581D-04 0.179D-03-0.675D-03-0.107D-02 0.104D-01
 Coeff-Com: -0.100D-01-0.545D-02-0.118D-01 0.407D-01-0.126D+00 0.375D+00
 Coeff-Com: -0.504D+00 0.400D+00-0.466D+00-0.126D+00 0.143D+01
 Coeff:     -0.144D-04-0.581D-04 0.179D-03-0.675D-03-0.107D-02 0.104D-01
 Coeff:     -0.100D-01-0.545D-02-0.118D-01 0.407D-01-0.126D+00 0.375D+00
 Coeff:     -0.504D+00 0.400D+00-0.466D+00-0.126D+00 0.143D+01
 Gap=     0.145 Goal=   None    Shift=    0.000
 RMSDP=2.65D-04 MaxDP=2.38D-03 DE=-2.96D-05 OVMax= 8.04D-03

 Cycle  18  Pass 1  IDiag  3:
 E=  2.30627970047425     Delta-E=       -0.000014725956 Rises=F Damp=F
 DIIS: error= 5.98D-05 at cycle  18 NSaved=  18.
 NSaved=18 IEnMin=18 EnMin=  2.30627970047425     IErMin=18 ErrMin= 5.98D-05
 ErrMax= 5.98D-05  0.00D+00 EMaxC= 1.00D-01 BMatC= 1.97D-07 BMatP= 3.10D-07
 IDIUse=1 WtCom= 1.00D+00 WtEn= 0.00D+00
 Coeff-Com:  0.223D-04-0.190D-04 0.192D-03-0.244D-03-0.422D-03 0.447D-02
 Coeff-Com: -0.990D-02 0.652D-02-0.311D-02-0.450D-02 0.154D-01 0.287D-01
 Coeff-Com: -0.371D-01-0.710D-01 0.248D+00-0.488D+00-0.600D+00 0.191D+01
 Coeff:      0.223D-04-0.190D-04 0.192D-03-0.244D-03-0.422D-03 0.447D-02
 Coeff:     -0.990D-02 0.652D-02-0.311D-02-0.450D-02 0.154D-01 0.287D-01
 Coeff:     -0.371D-01-0.710D-01 0.248D+00-0.488D+00-0.600D+00 0.191D+01
 Gap=     0.145 Goal=   None    Shift=    0.000
 RMSDP=3.56D-04 MaxDP=3.15D-03 DE=-1.47D-05 OVMax= 1.09D-02

 Cycle  19  Pass 1  IDiag  3:
 E=  2.30626475402579     Delta-E=       -0.000014946448 Rises=F Damp=F
 DIIS: error= 5.25D-05 at cycle  19 NSaved=  19.
 NSaved=19 IEnMin=19 EnMin=  2.30626475402579     IErMin=19 ErrMin= 5.25D-05
 ErrMax= 5.25D-05  0.00D+00 EMaxC= 1.00D-01 BMatC= 1.82D-07 BMatP= 1.97D-07
 IDIUse=1 WtCom= 1.00D+00 WtEn= 0.00D+00
 Coeff-Com:  0.339D-04-0.250D-04 0.979D-04-0.352D-03 0.318D-03 0.448D-02
 Coeff-Com: -0.113D-01 0.687D-02-0.993D-02 0.376D-02 0.627D-02 0.746D-01
 Coeff-Com: -0.152D+00 0.794D-01 0.141D+00-0.225D+00-0.637D+00 0.110D+01
 Coeff-Com:  0.618D+00
 Coeff:      0.339D-04-0.250D-04 0.979D-04-0.352D-03 0.318D-03 0.448D-02
 Coeff:     -0.113D-01 0.687D-02-0.993D-02 0.376D-02 0.627D-02 0.746D-01
 Coeff:     -0.152D+00 0.794D-01 0.141D+00-0.225D+00-0.637D+00 0.110D+01
 Coeff:      0.618D+00
 Gap=     0.145 Goal=   None    Shift=    0.000
 RMSDP=7.08D-05 MaxDP=6.25D-04 DE=-1.49D-05 OVMax= 1.85D-03

 Cycle  20  Pass 1  IDiag  3:
 E=  2.30626141962074     Delta-E=       -0.000003334405 Rises=F Damp=F
 DIIS: error= 4.61D-05 at cycle  20 NSaved=  20.
 NSaved=20 IEnMin=20 EnMin=  2.30626141962074     IErMin=20 ErrMin= 4.61D-05
 ErrMax= 4.61D-05  0.00D+00 EMaxC= 1.00D-01 BMatC= 1.06D-07 BMatP= 1.82D-07
 IDIUse=1 WtCom= 1.00D+00 WtEn= 0.00D+00
 Coeff-Com: -0.429D-05-0.734D-05 0.199D-03-0.525D-04-0.216D-02 0.473D-02
 Coeff-Com: -0.904D-04-0.740D-02 0.141D-01-0.638D-02-0.945D-02 0.110D-01
 Coeff-Com: -0.560D-02-0.261D-01 0.390D-01 0.112D+00 0.143D+00-0.805D+00
 Coeff-Com: -0.111D+00 0.165D+01
 Coeff:     -0.429D-05-0.734D-05 0.199D-03-0.525D-04-0.216D-02 0.473D-02
 Coeff:     -0.904D-04-0.740D-02 0.141D-01-0.638D-02-0.945D-02 0.110D-01
 Coeff:     -0.560D-02-0.261D-01 0.390D-01 0.112D+00 0.143D+00-0.805D+00
 Coeff:     -0.111D+00 0.165D+01
 Gap=     0.145 Goal=   None    Shift=    0.000
 RMSDP=1.47D-04 MaxDP=1.22D-03 DE=-3.33D-06 OVMax= 4.08D-03

 Cycle  21  Pass 1  IDiag  3:
 E=  2.30625557326988     Delta-E=       -0.000005846351 Rises=F Damp=F
 DIIS: error= 4.46D-05 at cycle  21 NSaved=  20.
 NSaved=20 IEnMin=20 EnMin=  2.30625557326988     IErMin=20 ErrMin= 4.46D-05
 ErrMax= 4.46D-05  0.00D+00 EMaxC= 1.00D-01 BMatC= 1.01D-07 BMatP= 1.06D-07
 IDIUse=1 WtCom= 1.00D+00 WtEn= 0.00D+00
 Coeff-Com: -0.506D-05 0.164D-03-0.946D-04-0.121D-02 0.459D-02-0.485D-02
 Coeff-Com: -0.170D-02 0.736D-02-0.771D-02 0.372D-02 0.149D-01-0.220D-01
 Coeff-Com: -0.156D-01 0.584D-01 0.509D-01 0.521D-01-0.411D+00-0.202D+00
 Coeff-Com:  0.732D+00 0.743D+00
 Coeff:     -0.506D-05 0.164D-03-0.946D-04-0.121D-02 0.459D-02-0.485D-02
 Coeff:     -0.170D-02 0.736D-02-0.771D-02 0.372D-02 0.149D-01-0.220D-01
 Coeff:     -0.156D-01 0.584D-01 0.509D-01 0.521D-01-0.411D+00-0.202D+00
 Coeff:      0.732D+00 0.743D+00
 Gap=     0.145 Goal=   None    Shift=    0.000
 RMSDP=4.91D-05 MaxDP=4.97D-04 DE=-5.85D-06 OVMax= 1.17D-03

 Cycle  22  Pass 1  IDiag  3:
 E=  2.30625338751366     Delta-E=       -0.000002185756 Rises=F Damp=F
 DIIS: error= 4.26D-05 at cycle  22 NSaved=  20.
 NSaved=20 IEnMin=20 EnMin=  2.30625338751366     IErMin=20 ErrMin= 4.26D-05
 ErrMax= 4.26D-05  0.00D+00 EMaxC= 1.00D-01 BMatC= 9.12D-08 BMatP= 1.01D-07
 IDIUse=1 WtCom= 1.00D+00 WtEn= 0.00D+00
 Coeff-Com:  0.135D-03-0.671D-04-0.782D-03 0.425D-02-0.766D-02 0.265D-02
 Coeff-Com:  0.579D-02-0.132D-01 0.205D-01-0.105D-01 0.202D-02-0.771D-02
 Coeff-Com:  0.275D-01-0.517D-02-0.156D-01-0.184D-02 0.195D-01-0.238D+00
 Coeff-Com: -0.302D-01 0.125D+01
 Coeff:      0.135D-03-0.671D-04-0.782D-03 0.425D-02-0.766D-02 0.265D-02
 Coeff:      0.579D-02-0.132D-01 0.205D-01-0.105D-01 0.202D-02-0.771D-02
 Coeff:      0.275D-01-0.517D-02-0.156D-01-0.184D-02 0.195D-01-0.238D+00
 Coeff:     -0.302D-01 0.125D+01
 Gap=     0.145 Goal=   None    Shift=    0.000
 RMSDP=6.51D-05 MaxDP=6.40D-04 DE=-2.19D-06 OVMax= 1.70D-03

 Cycle  23  Pass 1  IDiag  3:
 E=  2.30625051926165     Delta-E=       -0.000002868252 Rises=F Damp=F
 DIIS: error= 4.29D-05 at cycle  23 NSaved=  20.
 NSaved=20 IEnMin=20 EnMin=  2.30625051926165     IErMin=19 ErrMin= 4.26D-05
 ErrMax= 4.29D-05  0.00D+00 EMaxC= 1.00D-01 BMatC= 9.26D-08 BMatP= 9.12D-08
 IDIUse=1 WtCom= 1.00D+00 WtEn= 0.00D+00
 Coeff-Com:  0.747D-04-0.829D-04 0.195D-02-0.611D-02 0.492D-02-0.842D-04
 Coeff-Com: -0.536D-02 0.137D-01-0.895D-02 0.111D-02 0.358D-02 0.106D-01
 Coeff-Com:  0.173D-02-0.217D-01 0.337D-01 0.405D-01-0.411D+00-0.277D-01
 Coeff-Com:  0.187D+01-0.497D+00
 Coeff:      0.747D-04-0.829D-04 0.195D-02-0.611D-02 0.492D-02-0.842D-04
 Coeff:     -0.536D-02 0.137D-01-0.895D-02 0.111D-02 0.358D-02 0.106D-01
 Coeff:      0.173D-02-0.217D-01 0.337D-01 0.405D-01-0.411D+00-0.277D-01
 Coeff:      0.187D+01-0.497D+00
 Gap=     0.145 Goal=   None    Shift=    0.000
 RMSDP=1.46D-05 MaxDP=1.33D-04 DE=-2.87D-06 OVMax= 4.31D-04

 Cycle  24  Pass 1  IDiag  3:
 E=  2.30625110530718     Delta-E=        0.000000586046 Rises=F Damp=F
 DIIS: error= 4.29D-05 at cycle  24 NSaved=  20.
 NSaved=20 IEnMin=19 EnMin=  2.30625051926165     IErMin=18 ErrMin= 4.26D-05
 ErrMax= 4.29D-05  0.00D+00 EMaxC= 1.00D-01 BMatC= 9.04D-08 BMatP= 9.12D-08
 IDIUse=1 WtCom= 1.00D+00 WtEn= 0.00D+00
 Coeff-Com: -0.393D-03 0.316D-02-0.498D-02 0.143D-02-0.530D-03 0.306D-02
 Coeff-Com: -0.103D-01 0.275D-01-0.239D-01 0.262D-02 0.352D-01-0.337D-01
 Coeff-Com: -0.162D-01 0.170D-01 0.707D-01-0.292D+00 0.142D+00 0.739D+00
 Coeff-Com: -0.680D+00 0.102D+01
 Coeff:     -0.393D-03 0.316D-02-0.498D-02 0.143D-02-0.530D-03 0.306D-02
 Coeff:     -0.103D-01 0.275D-01-0.239D-01 0.262D-02 0.352D-01-0.337D-01
 Coeff:     -0.162D-01 0.170D-01 0.707D-01-0.292D+00 0.142D+00 0.739D+00
 Coeff:     -0.680D+00 0.102D+01
 Gap=     0.145 Goal=   None    Shift=    0.000
 RMSDP=2.07D-05 MaxDP=1.93D-04 DE= 5.86D-07 OVMax= 5.43D-04

 Cycle  25  Pass 1  IDiag  3:
 E=  2.30625021922395     Delta-E=       -0.000000886083 Rises=F Damp=F
 DIIS: error= 4.24D-05 at cycle  25 NSaved=  20.
 NSaved=20 IEnMin=20 EnMin=  2.30625021922395     IErMin=20 ErrMin= 4.24D-05
 ErrMax= 4.24D-05  0.00D+00 EMaxC= 1.00D-01 BMatC= 9.04D-08 BMatP= 9.04D-08
 IDIUse=1 WtCom= 1.00D+00 WtEn= 0.00D+00
 Coeff-Com:  0.286D-02-0.695D-02 0.370D-02-0.204D-03-0.270D-02 0.105D-02
 Coeff-Com:  0.216D-01-0.333D-01 0.248D-01 0.110D-01-0.176D-01-0.268D-01
 Coeff-Com:  0.354D-01 0.671D-01-0.336D+00 0.133D+00 0.884D+00-0.747D+00
 Coeff-Com:  0.453D+00 0.534D+00
 Coeff:      0.286D-02-0.695D-02 0.370D-02-0.204D-03-0.270D-02 0.105D-02
 Coeff:      0.216D-01-0.333D-01 0.248D-01 0.110D-01-0.176D-01-0.268D-01
 Coeff:      0.354D-01 0.671D-01-0.336D+00 0.133D+00 0.884D+00-0.747D+00
 Coeff:      0.453D+00 0.534D+00
 Gap=     0.145 Goal=   None    Shift=    0.000
 RMSDP=8.28D-06 MaxDP=8.43D-05 DE=-8.86D-07 OVMax= 2.04D-04

 Cycle  26  Pass 1  IDiag  3:
 E=  2.30624985666412     Delta-E=       -0.000000362560 Rises=F Damp=F
 DIIS: error= 4.21D-05 at cycle  26 NSaved=  20.
 NSaved=20 IEnMin=20 EnMin=  2.30624985666412     IErMin=20 ErrMin= 4.21D-05
 ErrMax= 4.21D-05  0.00D+00 EMaxC= 1.00D-01 BMatC= 9.03D-08 BMatP= 9.04D-08
 IDIUse=1 WtCom= 1.00D+00 WtEn= 0.00D+00
 Coeff-Com:  0.889D-03-0.582D-03-0.633D-02 0.132D-01-0.161D-01 0.314D-01
 Coeff-Com: -0.443D-01 0.426D-01-0.966D-02-0.132D-02-0.360D-01 0.397D-01
 Coeff-Com:  0.618D-01-0.325D+00 0.106D+00 0.952D+00-0.755D+00 0.229D+00
 Coeff-Com:  0.772D+00-0.545D-01
 Coeff:      0.889D-03-0.582D-03-0.633D-02 0.132D-01-0.161D-01 0.314D-01
 Coeff:     -0.443D-01 0.426D-01-0.966D-02-0.132D-02-0.360D-01 0.397D-01
 Coeff:      0.618D-01-0.325D+00 0.106D+00 0.952D+00-0.755D+00 0.229D+00
 Coeff:      0.772D+00-0.545D-01
 Gap=     0.145 Goal=   None    Shift=    0.000
 RMSDP=2.03D-06 MaxDP=1.87D-05 DE=-3.63D-07 OVMax= 5.01D-05

 Cycle  27  Pass 1  IDiag  3:
 E=  2.30624977814733     Delta-E=       -0.000000078517 Rises=F Damp=F
 DIIS: error= 4.18D-05 at cycle  27 NSaved=  20.
 NSaved=20 IEnMin=20 EnMin=  2.30624977814733     IErMin=20 ErrMin= 4.18D-05
 ErrMax= 4.18D-05  0.00D+00 EMaxC= 1.00D-01 BMatC= 9.03D-08 BMatP= 9.03D-08
 IDIUse=1 WtCom= 1.00D+00 WtEn= 0.00D+00
 Coeff-Com:  0.650D-03-0.675D-02 0.126D-01-0.134D-01 0.291D-01-0.481D-01
 Coeff-Com:  0.494D-01-0.132D-01-0.855D-03-0.357D-01 0.401D-01 0.612D-01
 Coeff-Com: -0.326D+00 0.103D+00 0.960D+00-0.764D+00 0.200D+00 0.791D+00
 Coeff-Com:  0.146D+00-0.186D+00
 Coeff:      0.650D-03-0.675D-02 0.126D-01-0.134D-01 0.291D-01-0.481D-01
 Coeff:      0.494D-01-0.132D-01-0.855D-03-0.357D-01 0.401D-01 0.612D-01
 Coeff:     -0.326D+00 0.103D+00 0.960D+00-0.764D+00 0.200D+00 0.791D+00
 Coeff:      0.146D+00-0.186D+00
 Gap=     0.145 Goal=   None    Shift=    0.000
 RMSDP=4.99D-07 MaxDP=4.98D-06 DE=-7.85D-08 OVMax= 1.13D-05

 Cycle  28  Pass 1  IDiag  3:
 E=  2.30624975811043     Delta-E=       -0.000000020037 Rises=F Damp=F
 DIIS: error= 4.17D-05 at cycle  28 NSaved=  20.
 NSaved=20 IEnMin=20 EnMin=  2.30624975811043     IErMin=20 ErrMin= 4.17D-05
 ErrMax= 4.17D-05  0.00D+00 EMaxC= 1.00D-01 BMatC= 9.03D-08 BMatP= 9.03D-08
 IDIUse=1 WtCom= 1.00D+00 WtEn= 0.00D+00
 Coeff-Com: -0.605D-02 0.112D-01-0.113D-01 0.300D-01-0.466D-01 0.420D-01
 Coeff-Com: -0.755D-02-0.325D-02-0.346D-01 0.373D-01 0.560D-01-0.309D+00
 Coeff-Com:  0.919D-01 0.903D+00-0.764D+00 0.262D+00 0.830D+00 0.206D+00
 Coeff-Com:  0.390D+01-0.418D+01
 Coeff:     -0.605D-02 0.112D-01-0.113D-01 0.300D-01-0.466D-01 0.420D-01
 Coeff:     -0.755D-02-0.325D-02-0.346D-01 0.373D-01 0.560D-01-0.309D+00
 Coeff:      0.919D-01 0.903D+00-0.764D+00 0.262D+00 0.830D+00 0.206D+00
 Coeff:      0.390D+01-0.418D+01
 Gap=     0.145 Goal=   None    Shift=    0.000
 RMSDP=1.24D-06 MaxDP=1.06D-05 DE=-2.00D-08 OVMax= 3.44D-05

 Cycle  29  Pass 1  IDiag  3:
 E=  2.30624971343099     Delta-E=       -0.000000044679 Rises=F Damp=F
 DIIS: error= 4.18D-05 at cycle  29 NSaved=  20.
 NSaved=20 IEnMin=20 EnMin=  2.30624971343099     IErMin=19 ErrMin= 4.17D-05
 ErrMax= 4.18D-05  0.00D+00 EMaxC= 1.00D-01 BMatC= 9.02D-08 BMatP= 9.03D-08
 IDIUse=1 WtCom= 1.00D+00 WtEn= 0.00D+00
 Large coefficients: NSaved= 20 BigCof=   10.43 CofMax=   10.00 Det=-7.90D-13
 Inversion failed.  Reducing to 19 matrices.
 Coeff-Com:  0.804D-02 0.281D-03-0.363D-01 0.498D-01-0.142D-01 0.142D-01
 Coeff-Com: -0.392D-01 0.266D-01 0.365D-01-0.263D+00 0.577D-01 0.124D+01
 Coeff-Com: -0.724D+00-0.512D-01 0.114D+00-0.958D+00-0.407D+01-0.400D+01
 Coeff-Com:  0.961D+01
 Coeff:      0.804D-02 0.281D-03-0.363D-01 0.498D-01-0.142D-01 0.142D-01
 Coeff:     -0.392D-01 0.266D-01 0.365D-01-0.263D+00 0.577D-01 0.124D+01
 Coeff:     -0.724D+00-0.512D-01 0.114D+00-0.958D+00-0.407D+01-0.400D+01
 Coeff:      0.961D+01
 Gap=     0.145 Goal=   None    Shift=    0.000
 RMSDP=2.55D-06 MaxDP=2.81D-05 DE=-4.47D-08 OVMax= 6.51D-05

 Cycle  30  Pass 1  IDiag  3:
 E=  2.30624964706743     Delta-E=       -0.000000066364 Rises=F Damp=F
 DIIS: error= 4.18D-05 at cycle  30 NSaved=  20.
 NSaved=20 IEnMin=20 EnMin=  2.30624964706743     IErMin=18 ErrMin= 4.17D-05
 ErrMax= 4.18D-05  0.00D+00 EMaxC= 1.00D-01 BMatC= 9.02D-08 BMatP= 9.02D-08
 IDIUse=1 WtCom= 1.00D+00 WtEn= 0.00D+00
 Large coefficients: NSaved= 20 BigCof=   10.44 CofMax=   10.00 Det=-7.55D-13
 Inversion failed.  Reducing to 19 matrices.
 Large coefficients: NSaved= 19 BigCof=   10.26 CofMax=   10.00 Det=-8.24D-13
 Inversion failed.  Reducing to 18 matrices.
 Coeff-Com: -0.128D-01 0.316D-01-0.682D-02 0.479D-02-0.369D-01 0.348D-01
 Coeff-Com:  0.276D-01-0.263D+00 0.481D-01 0.129D+01-0.721D+00-0.939D-01
 Coeff-Com:  0.667D-01-0.103D+01-0.505D+01-0.272D+01 0.909D+01 0.336D+00
 Coeff:     -0.128D-01 0.316D-01-0.682D-02 0.479D-02-0.369D-01 0.348D-01
 Coeff:      0.276D-01-0.263D+00 0.481D-01 0.129D+01-0.721D+00-0.939D-01
 Coeff:      0.667D-01-0.103D+01-0.505D+01-0.272D+01 0.909D+01 0.336D+00
 Gap=     0.145 Goal=   None    Shift=    0.000
 RMSDP=4.37D-06 MaxDP=3.37D-05 DE=-6.64D-08 OVMax= 1.12D-04

 Cycle  31  Pass 1  IDiag  3:
 E=  2.30624958343014     Delta-E=       -0.000000063637 Rises=F Damp=F
 DIIS: error= 4.17D-05 at cycle  31 NSaved=  19.
 NSaved=19 IEnMin=19 EnMin=  2.30624958343014     IErMin=19 ErrMin= 4.17D-05
 ErrMax= 4.17D-05  0.00D+00 EMaxC= 1.00D-01 BMatC= 9.02D-08 BMatP= 9.02D-08
 IDIUse=1 WtCom= 1.00D+00 WtEn= 0.00D+00
 Coeff-Com: -0.833D-02 0.298D-01-0.899D-02 0.229D-02-0.391D-01 0.485D-01
 Coeff-Com:  0.262D-01-0.288D+00 0.561D-01 0.126D+01-0.734D+00-0.408D-01
 Coeff-Com:  0.147D+00-0.568D+00-0.406D+01-0.290D+01 0.707D+01-0.188D+00
 Coeff-Com:  0.119D+01
 Coeff:     -0.833D-02 0.298D-01-0.899D-02 0.229D-02-0.391D-01 0.485D-01
 Coeff:      0.262D-01-0.288D+00 0.561D-01 0.126D+01-0.734D+00-0.408D-01
 Coeff:      0.147D+00-0.568D+00-0.406D+01-0.290D+01 0.707D+01-0.188D+00
 Coeff:      0.119D+01
 Gap=     0.145 Goal=   None    Shift=    0.000
 RMSDP=1.81D-06 MaxDP=1.57D-05 DE=-6.36D-08 OVMax= 3.68D-05

 Cycle  32  Pass 1  IDiag  3:
 E=  2.30624956200813     Delta-E=       -0.000000021422 Rises=F Damp=F
 DIIS: error= 4.16D-05 at cycle  32 NSaved=  20.
 NSaved=20 IEnMin=20 EnMin=  2.30624956200813     IErMin=20 ErrMin= 4.16D-05
 ErrMax= 4.16D-05  0.00D+00 EMaxC= 1.00D-01 BMatC= 9.01D-08 BMatP= 9.02D-08
 IDIUse=1 WtCom= 1.00D+00 WtEn= 0.00D+00
 Coeff-Com:  0.118D-01-0.341D-02 0.292D-02 0.620D-02-0.252D-01-0.105D-02
 Coeff-Com:  0.395D-01-0.175D+00 0.358D-01 0.100D+01-0.671D+00 0.183D+00
 Coeff-Com:  0.293D+00-0.971D+00-0.241D+01-0.509D+01 0.853D+01 0.589D+00
 Coeff-Com: -0.526D+01 0.493D+01
 Coeff:      0.118D-01-0.341D-02 0.292D-02 0.620D-02-0.252D-01-0.105D-02
 Coeff:      0.395D-01-0.175D+00 0.358D-01 0.100D+01-0.671D+00 0.183D+00
 Coeff:      0.293D+00-0.971D+00-0.241D+01-0.509D+01 0.853D+01 0.589D+00
 Coeff:     -0.526D+01 0.493D+01
 Gap=     0.145 Goal=   None    Shift=    0.000
 RMSDP=4.41D-06 MaxDP=4.05D-05 DE=-2.14D-08 OVMax= 1.22D-04

 Cycle  33  Pass 1  IDiag  3:
 E=  2.30624971456626     Delta-E=        0.000000152558 Rises=F Damp=F
 DIIS: error= 4.18D-05 at cycle  33 NSaved=  20.
 NSaved=20 IEnMin=19 EnMin=  2.30624956200813     IErMin=19 ErrMin= 4.16D-05
 ErrMax= 4.18D-05  0.00D+00 EMaxC= 1.00D-01 BMatC= 9.02D-08 BMatP= 9.01D-08
 IDIUse=1 WtCom= 1.00D+00 WtEn= 0.00D+00
 Large coefficients: NSaved= 20 BigCof=   11.21 CofMax=   10.00 Det=-8.83D-13
 Inversion failed.  Reducing to 19 matrices.
 Large coefficients: NSaved= 19 BigCof=   11.32 CofMax=   10.00 Det=-9.29D-13
 Inversion failed.  Reducing to 18 matrices.
 Large coefficients: NSaved= 18 BigCof=   11.36 CofMax=   10.00 Det=-9.88D-13
 Inversion failed.  Reducing to 17 matrices.
 Large coefficients: NSaved= 17 BigCof=   10.34 CofMax=   10.00 Det=-9.99D-13
 Inversion failed.  Reducing to 16 matrices.
 Large coefficients: NSaved= 16 BigCof=   10.30 CofMax=   10.00 Det=-1.02D-12
 Inversion failed.  Reducing to 15 matrices.
 Large coefficients: NSaved= 15 BigCof=   10.37 CofMax=   10.00 Det=-1.02D-12
 Inversion failed.  Reducing to 14 matrices.
 Large coefficients: NSaved= 14 BigCof=   10.29 CofMax=   10.00 Det=-1.02D-12
 Inversion failed.  Reducing to 13 matrices.
 Large coefficients: NSaved= 13 BigCof=   11.88 CofMax=   10.00 Det=-1.03D-12
 Inversion failed.  Reducing to 12 matrices.
 Large coefficients: NSaved= 12 BigCof=   11.81 CofMax=   10.00 Det=-1.05D-12
 Inversion failed.  Reducing to 11 matrices.
 Large coefficients: NSaved= 11 BigCof=   14.09 CofMax=   10.00 Det=-1.14D-12
 Inversion failed.  Reducing to 10 matrices.
 Coeff-Com: -0.238D+00 0.107D+01 0.159D+00-0.122D+01-0.168D+01 0.231D+01
 Coeff-Com:  0.878D+00-0.771D+01 0.956D+01-0.213D+01
 Coeff:     -0.238D+00 0.107D+01 0.159D+00-0.122D+01-0.168D+01 0.231D+01
 Coeff:      0.878D+00-0.771D+01 0.956D+01-0.213D+01
 Gap=     0.145 Goal=   None    Shift=    0.000
 RMSDP=4.71D-05 MaxDP=4.49D-04 DE= 1.53D-07 OVMax= 1.30D-03

 Cycle  34  Pass 1  IDiag  1:
 E=  2.30624773954912     Delta-E=       -0.000001975017 Rises=F Damp=F
 DIIS: error= 4.26D-05 at cycle  34 NSaved=  11.
 NSaved=11 IEnMin=11 EnMin=  2.30624773954912     IErMin= 9 ErrMin= 4.16D-05
 ErrMax= 4.26D-05  0.00D+00 EMaxC= 1.00D-01 BMatC= 9.19D-08 BMatP= 9.01D-08
 IDIUse=1 WtCom= 1.00D+00 WtEn= 0.00D+00
 Large coefficients: NSaved= 11 BigCof=   13.97 CofMax=   10.00 Det=-1.18D-12
 Inversion failed.  Reducing to 10 matrices.
 Large coefficients: NSaved= 10 BigCof=   14.01 CofMax=   10.00 Det=-1.22D-12
 Inversion failed.  Reducing to  9 matrices.
 Large coefficients: NSaved=  9 BigCof=   11.74 CofMax=   10.00 Det=-1.24D-12
 Inversion failed.  Reducing to  8 matrices.
 Large coefficients: NSaved=  8 BigCof=   12.37 CofMax=   10.00 Det=-1.27D-12
 Inversion failed.  Reducing to  7 matrices.
 Large coefficients: NSaved=  7 BigCof=   12.53 CofMax=   10.00 Det=-1.44D-12
 Inversion failed.  Reducing to  6 matrices.
 Large coefficients: NSaved=  6 BigCof=   11.72 CofMax=   10.00 Det=-3.48D-12
 Inversion failed.  Reducing to  5 matrices.
 Large coefficients: NSaved=  5 BigCof=   10.02 CofMax=   10.00 Det=-4.16D-12
 Inversion failed.  Reducing to  4 matrices.
 Coeff-Com: -0.486D+01 0.987D+01-0.327D+01-0.738D+00
 Coeff:     -0.486D+01 0.987D+01-0.327D+01-0.738D+00
 RMSDP=1.87D-05 MaxDP=1.90D-04 DE=-1.98D-06 OVMax= 1.30D-03

 Cycle  35  Pass 1  IDiag  3:
 E=  2.30624849240343     Delta-E=        0.000000752854 Rises=F Damp=F
 DIIS: error= 4.15D-05 at cycle  35 NSaved=   5.
 NSaved= 5 IEnMin= 4 EnMin=  2.30624773954912     IErMin= 5 ErrMin= 4.15D-05
 ErrMax= 4.15D-05  0.00D+00 EMaxC= 1.00D-01 BMatC= 9.06D-08 BMatP= 9.01D-08
 IDIUse=1 WtCom= 1.00D+00 WtEn= 0.00D+00
 Coeff-Com: -0.421D+01 0.932D+01-0.296D+01-0.719D+00-0.436D+00
 Coeff:     -0.421D+01 0.932D+01-0.296D+01-0.719D+00-0.436D+00
 Gap=     0.126 Goal=   None    Shift=    0.000
 RMSDP=1.18D-05 MaxDP=1.12D-04 DE= 7.53D-07 OVMax= 2.50D-04

 Cycle  36  Pass 1  IDiag  3:
 E=  2.30624898356945     Delta-E=        0.000000491166 Rises=F Damp=F
 DIIS: error= 4.17D-05 at cycle  36 NSaved=   6.
 NSaved= 6 IEnMin= 4 EnMin=  2.30624773954912     IErMin= 5 ErrMin= 4.15D-05
 ErrMax= 4.17D-05  0.00D+00 EMaxC= 1.00D-01 BMatC= 9.05D-08 BMatP= 9.01D-08
 IDIUse=1 WtCom= 1.00D+00 WtEn= 0.00D+00
 Large coefficients: NSaved=  6 BigCof=   12.55 CofMax=   10.00 Det=-3.36D-12
 Inversion failed.  Reducing to  5 matrices.
 Coeff-Com: -0.213D+01 0.418D+01-0.547D+00-0.211D+01 0.161D+01
 Coeff:     -0.213D+01 0.418D+01-0.547D+00-0.211D+01 0.161D+01
 Gap=     0.126 Goal=   None    Shift=    0.000
 RMSDP=2.70D-05 MaxDP=2.23D-04 DE= 4.91D-07 OVMax= 5.76D-04

 Cycle  37  Pass 1  IDiag  3:
 E=  2.30625002537033     Delta-E=        0.000001041801 Rises=F Damp=F
 DIIS: error= 4.20D-05 at cycle  37 NSaved=   6.
 NSaved= 6 IEnMin= 3 EnMin=  2.30624773954912     IErMin= 4 ErrMin= 4.15D-05
 ErrMax= 4.20D-05  0.00D+00 EMaxC= 1.00D-01 BMatC= 9.06D-08 BMatP= 9.01D-08
 IDIUse=1 WtCom= 1.00D+00 WtEn= 0.00D+00
 Coeff-Com: -0.214D+01 0.467D+01-0.597D+00-0.355D+01 0.421D+01-0.160D+01
 Coeff:     -0.214D+01 0.467D+01-0.597D+00-0.355D+01 0.421D+01-0.160D+01
 Gap=     0.126 Goal=   None    Shift=    0.000
 RMSDP=1.87D-05 MaxDP=1.69D-04 DE= 1.04D-06 OVMax= 4.60D-04

 Cycle  38  Pass 1  IDiag  3:
 E=  2.30624941776381     Delta-E=       -0.000000607607 Rises=F Damp=F
 DIIS: error= 4.20D-05 at cycle  38 NSaved=   7.
 NSaved= 7 IEnMin= 3 EnMin=  2.30624773954912     IErMin= 4 ErrMin= 4.15D-05
 ErrMax= 4.20D-05  0.00D+00 EMaxC= 1.00D-01 BMatC= 9.04D-08 BMatP= 9.01D-08
 IDIUse=1 WtCom= 1.00D+00 WtEn= 0.00D+00
 Coeff-Com: -0.355D+01 0.563D+01-0.597D+00-0.372D+01 0.379D+01-0.184D+01
 Coeff-Com:  0.129D+01
 Coeff:     -0.355D+01 0.563D+01-0.597D+00-0.372D+01 0.379D+01-0.184D+01
 Coeff:      0.129D+01
 Gap=     0.126 Goal=   None    Shift=    0.000
 RMSDP=5.08D-06 MaxDP=5.44D-05 DE=-6.08D-07 OVMax= 1.06D-04

 Cycle  39  Pass 1  IDiag  3:
 E=  2.30624952448596     Delta-E=        0.000000106722 Rises=F Damp=F
 DIIS: error= 4.19D-05 at cycle  39 NSaved=   8.
 NSaved= 8 IEnMin= 3 EnMin=  2.30624773954912     IErMin= 4 ErrMin= 4.15D-05
 ErrMax= 4.19D-05  0.00D+00 EMaxC= 1.00D-01 BMatC= 9.01D-08 BMatP= 9.01D-08
 IDIUse=1 WtCom= 1.00D+00 WtEn= 0.00D+00
 Coeff-Com: -0.110D+01 0.272D+01-0.603D+00-0.289D+01 0.198D+01-0.935D+00
 Coeff-Com: -0.367D+01 0.550D+01
 Coeff:     -0.110D+01 0.272D+01-0.603D+00-0.289D+01 0.198D+01-0.935D+00
 Coeff:     -0.367D+01 0.550D+01
 Gap=     0.126 Goal=   None    Shift=    0.000
 RMSDP=2.89D-05 MaxDP=3.22D-04 DE= 1.07D-07 OVMax= 8.09D-04

 Cycle  40  Pass 1  IDiag  3:
 E=  2.30625068077643     Delta-E=        0.000001156290 Rises=F Damp=F
 DIIS: error= 4.22D-05 at cycle  40 NSaved=   9.
 NSaved= 9 IEnMin= 3 EnMin=  2.30624773954912     IErMin= 4 ErrMin= 4.15D-05
 ErrMax= 4.22D-05  0.00D+00 EMaxC= 1.00D-01 BMatC= 8.90D-08 BMatP= 9.01D-08
 IDIUse=1 WtCom= 1.00D+00 WtEn= 0.00D+00
 Coeff-Com: -0.108D+01 0.358D+01-0.538D+00-0.168D+01 0.325D+01-0.658D+00
 Coeff-Com: -0.328D+01-0.211D+01 0.352D+01
 Coeff:     -0.108D+01 0.358D+01-0.538D+00-0.168D+01 0.325D+01-0.658D+00
 Coeff:     -0.328D+01-0.211D+01 0.352D+01
 Gap=     0.126 Goal=   None    Shift=    0.000
 RMSDP=5.72D-05 MaxDP=6.39D-04 DE= 1.16D-06 OVMax= 1.56D-03

 Cycle  41  Pass 1  IDiag  3:
 E=  2.30625285220094     Delta-E=        0.000002171425 Rises=F Damp=F
 DIIS: error= 4.05D-05 at cycle  41 NSaved=  10.
 NSaved=10 IEnMin= 3 EnMin=  2.30624773954912     IErMin=10 ErrMin= 4.05D-05
 ErrMax= 4.05D-05  0.00D+00 EMaxC= 1.00D-01 BMatC= 8.64D-08 BMatP= 8.90D-08
 IDIUse=1 WtCom= 1.00D+00 WtEn= 0.00D+00
 Coeff-Com: -0.381D+00 0.258D+01-0.692D+00-0.199D+01 0.154D+01-0.983D+00
 Coeff-Com:  0.134D+01-0.139D+01-0.163D+01 0.260D+01
 Coeff:     -0.381D+00 0.258D+01-0.692D+00-0.199D+01 0.154D+01-0.983D+00
 Coeff:      0.134D+01-0.139D+01-0.163D+01 0.260D+01
 Gap=     0.126 Goal=   None    Shift=    0.000
 RMSDP=8.93D-05 MaxDP=9.82D-04 DE= 2.17D-06 OVMax= 2.46D-03

 Cycle  42  Pass 1  IDiag  3:
 E=  2.30625640282034     Delta-E=        0.000003550619 Rises=F Damp=F
 DIIS: error= 3.94D-05 at cycle  42 NSaved=  11.
 NSaved=11 IEnMin= 3 EnMin=  2.30624773954912     IErMin=11 ErrMin= 3.94D-05
 ErrMax= 3.94D-05  0.00D+00 EMaxC= 1.00D-01 BMatC= 8.32D-08 BMatP= 8.64D-08
 IDIUse=1 WtCom= 1.00D+00 WtEn= 0.00D+00
 Coeff-Com: -0.268D+01 0.515D+01-0.585D+00-0.259D+01 0.123D+01-0.376D+00
 Coeff-Com: -0.377D+01 0.557D+01-0.291D+01-0.155D+00 0.210D+01
 Coeff:     -0.268D+01 0.515D+01-0.585D+00-0.259D+01 0.123D+01-0.376D+00
 Coeff:     -0.377D+01 0.557D+01-0.291D+01-0.155D+00 0.210D+01
 Gap=     0.126 Goal=   None    Shift=    0.000
 RMSDP=1.31D-04 MaxDP=1.47D-03 DE= 3.55D-06 OVMax= 3.59D-03

 Cycle  43  Pass 1  IDiag  3:
 E=  2.30626151288288     Delta-E=        0.000005110063 Rises=F Damp=F
 DIIS: error= 3.56D-05 at cycle  43 NSaved=  12.
 NSaved=12 IEnMin= 3 EnMin=  2.30624773954912     IErMin=12 ErrMin= 3.56D-05
 ErrMax= 3.56D-05  0.00D+00 EMaxC= 1.00D-01 BMatC= 7.85D-08 BMatP= 8.32D-08
 IDIUse=1 WtCom= 1.00D+00 WtEn= 0.00D+00
 Coeff-Com: -0.254D+00 0.223D+01-0.530D+00-0.148D+01 0.440D+00-0.405D+00
 Coeff-Com: -0.243D+01 0.368D+01-0.148D+01-0.332D+00 0.199D+00 0.138D+01
 Coeff:     -0.254D+00 0.223D+01-0.530D+00-0.148D+01 0.440D+00-0.405D+00
 Coeff:     -0.243D+01 0.368D+01-0.148D+01-0.332D+00 0.199D+00 0.138D+01
 Gap=     0.126 Goal=   None    Shift=    0.000
 RMSDP=9.69D-05 MaxDP=1.11D-03 DE= 5.11D-06 OVMax= 2.61D-03

 Cycle  44  Pass 1  IDiag  3:
 E=  2.30626508180188     Delta-E=        0.000003568919 Rises=F Damp=F
 DIIS: error= 3.43D-05 at cycle  44 NSaved=  13.
 NSaved=13 IEnMin= 3 EnMin=  2.30624773954912     IErMin=13 ErrMin= 3.43D-05
 ErrMax= 3.43D-05  0.00D+00 EMaxC= 1.00D-01 BMatC= 7.21D-08 BMatP= 7.85D-08
 IDIUse=1 WtCom= 1.00D+00 WtEn= 0.00D+00
 Coeff-Com:  0.261D+01 0.325D+00-0.384D+00-0.159D+01 0.179D+01-0.686D+00
 Coeff-Com: -0.192D+01-0.701D-01-0.421D+00 0.157D-01-0.121D+01-0.176D+00
 Coeff-Com:  0.271D+01
 Coeff:      0.261D+01 0.325D+00-0.384D+00-0.159D+01 0.179D+01-0.686D+00
 Coeff:     -0.192D+01-0.701D-01-0.421D+00 0.157D-01-0.121D+01-0.176D+00
 Coeff:      0.271D+01
 Gap=     0.126 Goal=   None    Shift=    0.000
 RMSDP=4.12D-04 MaxDP=4.69D-03 DE= 3.57D-06 OVMax= 1.12D-02

 Cycle  45  Pass 1  IDiag  3:
 E=  2.30627877207542     Delta-E=        0.000013690274 Rises=F Damp=F
 DIIS: error= 2.98D-05 at cycle  45 NSaved=  14.
 NSaved=14 IEnMin= 3 EnMin=  2.30624773954912     IErMin=14 ErrMin= 2.98D-05
 ErrMax= 2.98D-05  0.00D+00 EMaxC= 1.00D-01 BMatC= 8.36D-08 BMatP= 7.21D-08
 IDIUse=1 WtCom= 1.00D+00 WtEn= 0.00D+00
 Coeff-Com:  0.285D+01 0.894D-01-0.360D+00-0.146D+01 0.150D+01-0.641D+00
 Coeff-Com: -0.239D+01 0.670D+00-0.530D+00 0.142D+00-0.122D+01-0.359D+00
 Coeff-Com:  0.258D+01 0.128D+00
 Coeff:      0.285D+01 0.894D-01-0.360D+00-0.146D+01 0.150D+01-0.641D+00
 Coeff:     -0.239D+01 0.670D+00-0.530D+00 0.142D+00-0.122D+01-0.359D+00
 Coeff:      0.258D+01 0.128D+00
 Gap=     0.126 Goal=   None    Shift=    0.000
 RMSDP=1.17D-05 MaxDP=9.84D-05 DE= 1.37D-05 OVMax= 1.99D-04

 Cycle  46  Pass 1  IDiag  3:
 E=  2.30627871264596     Delta-E=       -0.000000059429 Rises=F Damp=F
 DIIS: error= 2.98D-05 at cycle  46 NSaved=  15.
 NSaved=15 IEnMin= 3 EnMin=  2.30624773954912     IErMin=15 ErrMin= 2.98D-05
 ErrMax= 2.98D-05  0.00D+00 EMaxC= 1.00D-01 BMatC= 5.63D-08 BMatP= 7.21D-08
 IDIUse=1 WtCom= 1.00D+00 WtEn= 0.00D+00
 Coeff-Com:  0.567D+01-0.266D+01-0.521D+00-0.542D+01 0.949D+01-0.769D+00
 Coeff-Com: -0.971D+01 0.584D+01-0.321D+01 0.139D+01-0.324D+00-0.761D-01
 Coeff-Com: -0.845D+00 0.104D+00 0.204D+01
 Coeff:      0.567D+01-0.266D+01-0.521D+00-0.542D+01 0.949D+01-0.769D+00
 Coeff:     -0.971D+01 0.584D+01-0.321D+01 0.139D+01-0.324D+00-0.761D-01
 Coeff:     -0.845D+00 0.104D+00 0.204D+01
 Gap=     0.126 Goal=   None    Shift=    0.000
 RMSDP=5.64D-04 MaxDP=6.44D-03 DE=-5.94D-08 OVMax= 1.51D-02

 Cycle  47  Pass 1  IDiag  3:
 E=  2.30629297786976     Delta-E=        0.000014265224 Rises=F Damp=F
 DIIS: error= 3.22D-05 at cycle  47 NSaved=  16.
 NSaved=16 IEnMin= 3 EnMin=  2.30624773954912     IErMin=15 ErrMin= 2.98D-05
 ErrMax= 3.22D-05  0.00D+00 EMaxC= 1.00D-01 BMatC= 8.64D-08 BMatP= 5.63D-08
 IDIUse=1 WtCom= 1.00D+00 WtEn= 0.00D+00
 Coeff-Com:  0.578D+01-0.281D+01-0.477D+00-0.534D+01 0.930D+01-0.801D+00
 Coeff-Com: -0.947D+01 0.563D+01-0.304D+01 0.128D+01-0.279D+00-0.634D-01
 Coeff-Com: -0.695D+00-0.766D-01 0.191D+01 0.138D+00
 Coeff:      0.578D+01-0.281D+01-0.477D+00-0.534D+01 0.930D+01-0.801D+00
 Coeff:     -0.947D+01 0.563D+01-0.304D+01 0.128D+01-0.279D+00-0.634D-01
 Coeff:     -0.695D+00-0.766D-01 0.191D+01 0.138D+00
 Gap=     0.126 Goal=   None    Shift=    0.000
 RMSDP=1.62D-05 MaxDP=1.25D-04 DE= 1.43D-05 OVMax= 2.62D-04

 Cycle  48  Pass 1  IDiag  3:
 E=  2.30629292936686     Delta-E=       -0.000000048503 Rises=F Damp=F
 DIIS: error= 3.10D-05 at cycle  48 NSaved=  17.
 NSaved=17 IEnMin= 3 EnMin=  2.30624773954912     IErMin=15 ErrMin= 2.98D-05
 ErrMax= 3.10D-05  0.00D+00 EMaxC= 1.00D-01 BMatC= 5.03D-08 BMatP= 5.63D-08
 IDIUse=1 WtCom= 1.00D+00 WtEn= 0.00D+00
 Coeff-Com:  0.450D+01-0.102D+01-0.550D+00-0.548D+01 0.933D+01-0.177D+01
 Coeff-Com: -0.848D+01 0.525D+01-0.219D+01 0.810D+00-0.688D+00-0.711D-01
 Coeff-Com:  0.896D+00 0.273D-01-0.106D+01 0.842D-02 0.149D+01
 Coeff:      0.450D+01-0.102D+01-0.550D+00-0.548D+01 0.933D+01-0.177D+01
 Coeff:     -0.848D+01 0.525D+01-0.219D+01 0.810D+00-0.688D+00-0.711D-01
 Coeff:      0.896D+00 0.273D-01-0.106D+01 0.842D-02 0.149D+01
 Gap=     0.126 Goal=   None    Shift=    0.000
 RMSDP=1.00D-04 MaxDP=1.43D-03 DE=-4.85D-08 OVMax= 2.34D-03

 Cycle  49  Pass 1  IDiag  3:
 E=  2.30629432919352     Delta-E=        0.000001399827 Rises=F Damp=F
 DIIS: error= 2.58D-05 at cycle  49 NSaved=  18.
 NSaved=18 IEnMin= 3 EnMin=  2.30624773954912     IErMin=18 ErrMin= 2.58D-05
 ErrMax= 2.58D-05  0.00D+00 EMaxC= 1.00D-01 BMatC= 4.17D-08 BMatP= 5.03D-08
 IDIUse=1 WtCom= 1.00D+00 WtEn= 0.00D+00
 Coeff-Com:  0.574D+01-0.373D+01-0.184D+00 0.278D+01-0.465D+01-0.274D+01
 Coeff-Com:  0.869D+01-0.780D+01 0.329D+01-0.120D+01 0.613D-01-0.140D+00
 Coeff-Com:  0.165D-02 0.970D-01-0.115D+01-0.366D-01 0.810D+00 0.117D+01
 Coeff:      0.574D+01-0.373D+01-0.184D+00 0.278D+01-0.465D+01-0.274D+01
 Coeff:      0.869D+01-0.780D+01 0.329D+01-0.120D+01 0.613D-01-0.140D+00
 Coeff:      0.165D-02 0.970D-01-0.115D+01-0.366D-01 0.810D+00 0.117D+01
 Gap=     0.126 Goal=   None    Shift=    0.000
 RMSDP=3.72D-04 MaxDP=4.55D-03 DE= 1.40D-06 OVMax= 9.62D-03

 Cycle  50  Pass 1  IDiag  3:
 E=  2.30629927030310     Delta-E=        0.000004941110 Rises=F Damp=F
 DIIS: error= 2.28D-05 at cycle  50 NSaved=  19.
 NSaved=19 IEnMin= 3 EnMin=  2.30624773954912     IErMin=19 ErrMin= 2.28D-05
 ErrMax= 2.28D-05  0.00D+00 EMaxC= 1.00D-01 BMatC= 4.56D-08 BMatP= 4.17D-08
 IDIUse=1 WtCom= 1.00D+00 WtEn= 0.00D+00
 Coeff-Com:  0.337D+01-0.870D+00-0.256D+00 0.339D+01-0.574D+01-0.247D+01
 Coeff-Com:  0.721D+01-0.581D+01 0.249D+01-0.961D+00-0.187D+00-0.937D-01
 Coeff-Com:  0.928D-01 0.694D-01-0.996D+00-0.205D+00 0.790D+00 0.673D+00
 Coeff-Com:  0.500D+00
 Coeff:      0.337D+01-0.870D+00-0.256D+00 0.339D+01-0.574D+01-0.247D+01
 Coeff:      0.721D+01-0.581D+01 0.249D+01-0.961D+00-0.187D+00-0.937D-01
 Coeff:      0.928D-01 0.694D-01-0.996D+00-0.205D+00 0.790D+00 0.673D+00
 Coeff:      0.500D+00
 Gap=     0.126 Goal=   None    Shift=    0.000
 RMSDP=5.64D-05 MaxDP=7.60D-04 DE= 4.94D-06 OVMax= 1.24D-03

 Cycle  51  Pass 1  IDiag  3:
 E=  2.30629943068124     Delta-E=        0.000000160378 Rises=F Damp=F
 DIIS: error= 2.04D-05 at cycle  51 NSaved=  20.
 NSaved=20 IEnMin= 3 EnMin=  2.30624773954912     IErMin=20 ErrMin= 2.04D-05
 ErrMax= 2.04D-05  0.00D+00 EMaxC= 1.00D-01 BMatC= 2.45D-08 BMatP= 4.17D-08
 IDIUse=1 WtCom= 1.00D+00 WtEn= 0.00D+00
 Coeff-Com: -0.803D+01 0.865D+01 0.340D+00-0.338D+01 0.683D+01-0.982D+00
 Coeff-Com: -0.493D+01 0.356D+01-0.296D+01 0.163D+01-0.455D+00-0.916D-01
 Coeff-Com: -0.338D+00 0.456D-01 0.511D+00 0.287D+00-0.782D+00-0.162D+01
 Coeff-Com: -0.157D+00 0.287D+01
 Coeff:     -0.803D+01 0.865D+01 0.340D+00-0.338D+01 0.683D+01-0.982D+00
 Coeff:     -0.493D+01 0.356D+01-0.296D+01 0.163D+01-0.455D+00-0.916D-01
 Coeff:     -0.338D+00 0.456D-01 0.511D+00 0.287D+00-0.782D+00-0.162D+01
 Coeff:     -0.157D+00 0.287D+01
 Gap=     0.126 Goal=   None    Shift=    0.000
 RMSDP=4.45D-04 MaxDP=5.93D-03 DE= 1.60D-07 OVMax= 1.03D-02

 Cycle  52  Pass 1  IDiag  3:
 E=  2.30630095010196     Delta-E=        0.000001519421 Rises=F Damp=F
 DIIS: error= 2.40D-05 at cycle  52 NSaved=  20.
 NSaved=20 IEnMin= 3 EnMin=  2.30624773954912     IErMin=19 ErrMin= 2.04D-05
 ErrMax= 2.40D-05  0.00D+00 EMaxC= 1.00D-01 BMatC= 5.49D-08 BMatP= 2.45D-08
 IDIUse=1 WtCom= 1.00D+00 WtEn= 0.00D+00
 Large coefficients: NSaved= 20 BigCof=   10.59 CofMax=   10.00 Det=-6.71D-12
 Inversion failed.  Reducing to 19 matrices.
 Coeff-Com: -0.207D+01 0.427D+01-0.122D+00 0.232D+01-0.345D+01-0.284D+01
 Coeff-Com:  0.765D+01-0.719D+01 0.276D+01-0.100D+01-0.183D-01-0.413D-01
 Coeff-Com: -0.276D+00 0.123D+00-0.610D+00-0.548D-01 0.346D+00 0.894D+00
 Coeff-Com:  0.303D+00
 Coeff:     -0.207D+01 0.427D+01-0.122D+00 0.232D+01-0.345D+01-0.284D+01
 Coeff:      0.765D+01-0.719D+01 0.276D+01-0.100D+01-0.183D-01-0.413D-01
 Coeff:     -0.276D+00 0.123D+00-0.610D+00-0.548D-01 0.346D+00 0.894D+00
 Coeff:      0.303D+00
 Gap=     0.126 Goal=   None    Shift=    0.000
 RMSDP=1.13D-04 MaxDP=1.60D-03 DE= 1.52D-06 OVMax= 2.30D-03

 Cycle  53  Pass 1  IDiag  3:
 E=  2.30630078854841     Delta-E=       -0.000000161554 Rises=F Damp=F
 DIIS: error= 1.35D-05 at cycle  53 NSaved=  20.
 NSaved=20 IEnMin= 3 EnMin=  2.30624773954912     IErMin=20 ErrMin= 1.35D-05
 ErrMax= 1.35D-05  0.00D+00 EMaxC= 1.00D-01 BMatC= 1.68D-08 BMatP= 2.45D-08
 IDIUse=1 WtCom= 1.00D+00 WtEn= 0.00D+00
 Coeff-Com: -0.516D+01 0.540D+01 0.131D+00-0.227D+01 0.401D+01-0.932D+00
 Coeff-Com: -0.321D+01 0.378D+01-0.226D+01 0.856D+00-0.825D-01-0.319D-01
 Coeff-Com: -0.270D+00-0.824D-02 0.135D+00 0.886D-01-0.396D+00-0.398D+00
 Coeff-Com:  0.736D-01 0.155D+01
 Coeff:     -0.516D+01 0.540D+01 0.131D+00-0.227D+01 0.401D+01-0.932D+00
 Coeff:     -0.321D+01 0.378D+01-0.226D+01 0.856D+00-0.825D-01-0.319D-01
 Coeff:     -0.270D+00-0.824D-02 0.135D+00 0.886D-01-0.396D+00-0.398D+00
 Coeff:      0.736D-01 0.155D+01
 Gap=     0.126 Goal=   None    Shift=    0.000
 RMSDP=2.09D-04 MaxDP=2.83D-03 DE=-1.62D-07 OVMax= 4.49D-03

 Cycle  54  Pass 1  IDiag  3:
 E=  2.30630054946221     Delta-E=       -0.000000239086 Rises=F Damp=F
 DIIS: error= 1.66D-05 at cycle  54 NSaved=  20.
 NSaved=20 IEnMin= 3 EnMin=  2.30624773954912     IErMin=19 ErrMin= 1.35D-05
 ErrMax= 1.66D-05  0.00D+00 EMaxC= 1.00D-01 BMatC= 2.47D-08 BMatP= 1.68D-08
 IDIUse=1 WtCom= 1.00D+00 WtEn= 0.00D+00
 Coeff-Com: -0.340D+01 0.465D+01-0.193D+00-0.132D+01 0.266D+01-0.132D+01
 Coeff-Com: -0.708D+00 0.158D+00-0.432D+00 0.131D+00-0.740D-01 0.646D-01
 Coeff-Com: -0.235D+00-0.206D-02-0.807D-02 0.132D-01 0.755D-01-0.622D+00
 Coeff-Com:  0.110D+01 0.469D+00
 Coeff:     -0.340D+01 0.465D+01-0.193D+00-0.132D+01 0.266D+01-0.132D+01
 Coeff:     -0.708D+00 0.158D+00-0.432D+00 0.131D+00-0.740D-01 0.646D-01
 Coeff:     -0.235D+00-0.206D-02-0.807D-02 0.132D-01 0.755D-01-0.622D+00
 Coeff:      0.110D+01 0.469D+00
 Gap=     0.126 Goal=   None    Shift=    0.000
 RMSDP=1.61D-05 MaxDP=1.71D-04 DE=-2.39D-07 OVMax= 3.75D-04

 Cycle  55  Pass 1  IDiag  3:
 E=  2.30630038611116     Delta-E=       -0.000000163351 Rises=F Damp=F
 DIIS: error= 7.00D-06 at cycle  55 NSaved=  20.
 NSaved=20 IEnMin= 3 EnMin=  2.30624773954912     IErMin=20 ErrMin= 7.00D-06
 ErrMax= 7.00D-06  0.00D+00 EMaxC= 1.00D-01 BMatC= 6.66D-09 BMatP= 2.45D-08
 IDIUse=1 WtCom= 1.00D+00 WtEn= 0.00D+00
 Coeff-Com:  0.137D+00-0.674D+00 0.173D+00 0.153D+00 0.208D+00-0.494D+00
 Coeff-Com:  0.893D+00-0.779D+00 0.530D+00-0.275D+00 0.130D+00-0.699D-01
 Coeff-Com:  0.249D+00-0.227D-01-0.340D+00 0.144D-01 0.507D+00-0.860D+00
 Coeff-Com: -0.267D+00 0.179D+01
 Coeff:      0.137D+00-0.674D+00 0.173D+00 0.153D+00 0.208D+00-0.494D+00
 Coeff:      0.893D+00-0.779D+00 0.530D+00-0.275D+00 0.130D+00-0.699D-01
 Coeff:      0.249D+00-0.227D-01-0.340D+00 0.144D-01 0.507D+00-0.860D+00
 Coeff:     -0.267D+00 0.179D+01
 Gap=     0.126 Goal=   None    Shift=    0.000
 RMSDP=1.62D-04 MaxDP=1.98D-03 DE=-1.63D-07 OVMax= 3.30D-03

 Cycle  56  Pass 1  IDiag  3:
 E=  2.30630008599024     Delta-E=       -0.000000300121 Rises=F Damp=F
 DIIS: error= 9.31D-06 at cycle  56 NSaved=  20.
 NSaved=20 IEnMin= 3 EnMin=  2.30624773954912     IErMin=19 ErrMin= 7.00D-06
 ErrMax= 9.31D-06  0.00D+00 EMaxC= 1.00D-01 BMatC= 9.39D-09 BMatP= 6.66D-09
 IDIUse=1 WtCom= 1.00D+00 WtEn= 0.00D+00
 Coeff-Com:  0.110D+00 0.394D+00-0.115D+00 0.148D+00 0.559D-01-0.878D+00
 Coeff-Com:  0.216D+01-0.266D+01 0.126D+01-0.599D+00 0.686D-01 0.323D-01
 Coeff-Com:  0.215D+00-0.260D-01-0.392D+00-0.351D-01 0.700D+00-0.900D+00
 Coeff-Com:  0.124D+01 0.234D+00
 Coeff:      0.110D+00 0.394D+00-0.115D+00 0.148D+00 0.559D-01-0.878D+00
 Coeff:      0.216D+01-0.266D+01 0.126D+01-0.599D+00 0.686D-01 0.323D-01
 Coeff:      0.215D+00-0.260D-01-0.392D+00-0.351D-01 0.700D+00-0.900D+00
 Coeff:      0.124D+01 0.234D+00
 Gap=     0.126 Goal=   None    Shift=    0.000
 RMSDP=1.29D-05 MaxDP=1.59D-04 DE=-3.00D-07 OVMax= 2.85D-04

 Cycle  57  Pass 1  IDiag  3:
 E=  2.30630004674146     Delta-E=       -0.000000039249 Rises=F Damp=F
 DIIS: error= 3.23D-06 at cycle  57 NSaved=  20.
 NSaved=20 IEnMin= 3 EnMin=  2.30624773954912     IErMin=20 ErrMin= 3.23D-06
 ErrMax= 3.23D-06  0.00D+00 EMaxC= 1.00D-01 BMatC= 1.40D-09 BMatP= 9.39D-09
 IDIUse=1 WtCom= 1.00D+00 WtEn= 0.00D+00
