 Entering Gaussian System, Link 0=g16
 Input=NCCONCCOCCCNCCOCCCNCCOCCNCCNNCCONCCOCCCNCCOCOCNCCOCOCNCCOCCCNCCOCO_7.gjf
 Output=NCCONCCOCCCNCCOCCCNCCOCCNCCNNCCONCCOCCCNCCOCOCNCCOCOCNCCOCCCNCCOCO_7.log
 Initial command:
 /work/01114/jfonner/frontera/gaussian/16rC.01/g16/l1.exe "/scratch1/08249/sa748948/lsqc/23625606/Gau-119048.inp" -scrdir="/scratch1/08249/sa748948/lsqc/23625606/"
 Entering Link 1 = /work/01114/jfonner/frontera/gaussian/16rC.01/g16/l1.exe PID=    119053.
  
 Copyright (c) 1988-2019, Gaussian, Inc.  All Rights Reserved.
  
 This is part of the Gaussian(R) 16 program.  It is based on
 the Gaussian(R) 09 system (copyright 2009, Gaussian, Inc.),
 the Gaussian(R) 03 system (copyright 2003, Gaussian, Inc.),
 the Gaussian(R) 98 system (copyright 1998, Gaussian, Inc.),
 the Gaussian(R) 94 system (copyright 1995, Gaussian, Inc.),
 the Gaussian 92(TM) system (copyright 1992, Gaussian, Inc.),
 the Gaussian 90(TM) system (copyright 1990, Gaussian, Inc.),
 the Gaussian 88(TM) system (copyright 1988, Gaussian, Inc.),
 the Gaussian 86(TM) system (copyright 1986, Carnegie Mellon
 University), and the Gaussian 82(TM) system (copyright 1983,
 Carnegie Mellon University). Gaussian is a federally registered
 trademark of Gaussian, Inc.
  
 This software contains proprietary and confidential information,
 including trade secrets, belonging to Gaussian, Inc.
  
 This software is provided under written license and may be
 used, copied, transmitted, or stored only in accord with that
 written license.
  
 The following legend is applicable only to US Government
 contracts under FAR:
  
                    RESTRICTED RIGHTS LEGEND
  
 Use, reproduction and disclosure by the US Government is
 subject to restrictions as set forth in subparagraphs (a)
 and (c) of the Commercial Computer Software - Restricted
 Rights clause in FAR 52.227-19.
  
 Gaussian, Inc.
 340 Quinnipiac St., Bldg. 40, Wallingford CT 06492
  
  
 ---------------------------------------------------------------
 Warning -- This program may not be used in any manner that
 competes with the business of Gaussian, Inc. or will provide
 assistance to any competitor of Gaussian, Inc.  The licensee
 of this program is prohibited from giving any competitor of
 Gaussian, Inc. access to this program.  By using this program,
 the user acknowledges that Gaussian, Inc. is engaged in the
 business of creating and licensing software in the field of
 computational chemistry and represents and warrants to the
 licensee that it is not a competitor of Gaussian, Inc. and that
 it will not use this program in any manner prohibited above.
 ---------------------------------------------------------------
  

 Cite this work as:
 Gaussian 16, Revision C.01,
 M. J. Frisch, G. W. Trucks, H. B. Schlegel, G. E. Scuseria, 
 M. A. Robb, J. R. Cheeseman, G. Scalmani, V. Barone, 
 G. A. Petersson, H. Nakatsuji, X. Li, M. Caricato, A. V. Marenich, 
 J. Bloino, B. G. Janesko, R. Gomperts, B. Mennucci, H. P. Hratchian, 
 J. V. Ortiz, A. F. Izmaylov, J. L. Sonnenberg, D. Williams-Young, 
 F. Ding, F. Lipparini, F. Egidi, J. Goings, B. Peng, A. Petrone, 
 T. Henderson, D. Ranasinghe, V. G. Zakrzewski, J. Gao, N. Rega, 
 G. Zheng, W. Liang, M. Hada, M. Ehara, K. Toyota, R. Fukuda, 
 J. Hasegawa, M. Ishida, T. Nakajima, Y. Honda, O. Kitao, H. Nakai, 
 T. Vreven, K. Throssell, J. A. Montgomery, Jr., J. E. Peralta, 
 F. Ogliaro, M. J. Bearpark, J. J. Heyd, E. N. Brothers, K. N. Kudin, 
 V. N. Staroverov, T. A. Keith, R. Kobayashi, J. Normand, 
 K. Raghavachari, A. P. Rendell, J. C. Burant, S. S. Iyengar, 
 J. Tomasi, M. Cossi, J. M. Millam, M. Klene, C. Adamo, R. Cammi, 
 J. W. Ochterski, R. L. Martin, K. Morokuma, O. Farkas, 
 J. B. Foresman, and D. J. Fox, Gaussian, Inc., Wallingford CT, 2019.
 
 ******************************************
 Gaussian 16:  ES64L-G16RevC.01  3-Jul-2019
                12-Jan-2022 
 ******************************************
 %chk=NCCONCCOCCCNCCOCCCNCCOCCNCCNNCCONCCOCCCNCCOCOCNCCOCOCNCCOCCCNCCOCO_7.chk
 %nproc=56
 Will use up to   56 processors via shared memory.
 %mem=3gb
 ---------------------
 #p pm6 pop=npa nosymm
 ---------------------
 1/38=1,172=1/1;
 2/12=2,15=1,17=6,18=5,40=1/2;
 3/5=2,25=1,41=3900000/1,2,3;
 4/35=1/1;
 5/5=2,35=1,38=5/2;
 6/7=2,8=2,9=2,10=2,28=1,40=-1/1,7;
 99/5=1,9=1/99;
 Leave Link    1 at Wed Jan 12 18:27:08 2022, MaxMem=   402653184 cpu:               1.9 elap:               0.3
 (Enter /work/01114/jfonner/frontera/gaussian/16rC.01/g16/l101.exe)
 --------------
 Atom number=26
 --------------
 Symbolic Z-matrix:
 Charge =  1 Multiplicity = 1
 c                     3.00598   0.04697   14.36112 
 o                     2.95797  -1.16899   14.515 
 n                     3.48096   0.88701   15.26199 
 c                     4.16301   0.39193   16.4419 
 c                     3.42403   0.96493   17.63093 
 o                     3.13598   2.10994   17.61198 
 n                     3.173     0.12899   18.64703 
 c                     2.55898   0.51607   19.9031 
 c                     5.68799   0.75007   16.38907 
 o                     6.26396   0.12995   15.23595 
 c                     3.34991  -0.12203   21.01404 
 o                     3.36602  -1.33909   21.14001 
 n                     4.067     0.68803   21.76792 
 c                     4.88804   0.20508   22.85095 
 c                     4.35008   0.76905   24.17405 
 o                     4.16106   1.98111   24.26898 
 n                     4.06508  -0.11994   25.15091 
 c                     3.72007   0.31304   26.51498 
 c                     1.13794  -0.02106   19.98305 
 o                     0.393     0.39404   18.82401 
 c                     0.48602   0.50105   21.16699 
 h                     2.70239   0.50117   13.4411 
 h                     6.21368   0.36222   17.2365 
 h                     5.91048   0.48873   22.71293 
 h                     4.57408   0.19194   27.14815 
 h                     2.86421  -0.20215   26.89838 
 
 ITRead=  0  0  0  0  0  0  0  0  0  0  0  0  0  0  0  0  0  0  0  0
 ITRead=  0  0  0  0  0  0
 MicOpt= -1 -1 -1 -1 -1 -1 -1 -1 -1 -1 -1 -1 -1 -1 -1 -1 -1 -1 -1 -1
 MicOpt= -1 -1 -1 -1 -1 -1
 NAtoms=     26 NQM=       26 NQMF=       0 NMMI=      0 NMMIF=      0
                NMic=       0 NMicF=      0.
                    Isotopes and Nuclear Properties:
 (Nuclear quadrupole moments (NQMom) in fm**2, nuclear magnetic moments (NMagM)
  in nuclear magnetons)

  Atom         1           2           3           4           5           6           7           8           9          10
 IAtWgt=          12          16          14          12          12          16          14          12          12          16
 AtmWgt=  12.0000000  15.9949146  14.0030740  12.0000000  12.0000000  15.9949146  14.0030740  12.0000000  12.0000000  15.9949146
 NucSpn=           0           0           2           0           0           0           2           0           0           0
 AtZEff=  -0.0000000  -0.0000000  -0.0000000  -0.0000000  -0.0000000  -0.0000000  -0.0000000  -0.0000000  -0.0000000  -0.0000000
 NQMom=    0.0000000   0.0000000   2.0440000   0.0000000   0.0000000   0.0000000   2.0440000   0.0000000   0.0000000   0.0000000
 NMagM=    0.0000000   0.0000000   0.4037610   0.0000000   0.0000000   0.0000000   0.4037610   0.0000000   0.0000000   0.0000000
 AtZNuc=   6.0000000   8.0000000   7.0000000   6.0000000   6.0000000   8.0000000   7.0000000   6.0000000   6.0000000   8.0000000

  Atom        11          12          13          14          15          16          17          18          19          20
 IAtWgt=          12          16          14          12          12          16          14          12          12          16
 AtmWgt=  12.0000000  15.9949146  14.0030740  12.0000000  12.0000000  15.9949146  14.0030740  12.0000000  12.0000000  15.9949146
 NucSpn=           0           0           2           0           0           0           2           0           0           0
 AtZEff=  -0.0000000  -0.0000000  -0.0000000  -0.0000000  -0.0000000  -0.0000000  -0.0000000  -0.0000000  -0.0000000  -0.0000000
 NQMom=    0.0000000   0.0000000   2.0440000   0.0000000   0.0000000   0.0000000   2.0440000   0.0000000   0.0000000   0.0000000
 NMagM=    0.0000000   0.0000000   0.4037610   0.0000000   0.0000000   0.0000000   0.4037610   0.0000000   0.0000000   0.0000000
 AtZNuc=   6.0000000   8.0000000   7.0000000   6.0000000   6.0000000   8.0000000   7.0000000   6.0000000   6.0000000   8.0000000

  Atom        21          22          23          24          25          26
 IAtWgt=          12           1           1           1           1           1
 AtmWgt=  12.0000000   1.0078250   1.0078250   1.0078250   1.0078250   1.0078250
 NucSpn=           0           1           1           1           1           1
 AtZEff=  -0.0000000  -0.0000000  -0.0000000  -0.0000000  -0.0000000  -0.0000000
 NQMom=    0.0000000   0.0000000   0.0000000   0.0000000   0.0000000   0.0000000
 NMagM=    0.0000000   2.7928460   2.7928460   2.7928460   2.7928460   2.7928460
 AtZNuc=   6.0000000   1.0000000   1.0000000   1.0000000   1.0000000   1.0000000
 Leave Link  101 at Wed Jan 12 18:27:08 2022, MaxMem=   402653184 cpu:               7.0 elap:               0.8
 (Enter /work/01114/jfonner/frontera/gaussian/16rC.01/g16/l202.exe)
                          Input orientation:                          
 ---------------------------------------------------------------------
 Center     Atomic      Atomic             Coordinates (Angstroms)
 Number     Number       Type             X           Y           Z
 ---------------------------------------------------------------------
      1          6           0        3.005978    0.046974   14.361121
      2          8           0        2.957969   -1.168989   14.515003
      3          7           0        3.480959    0.887010   15.261993
      4          6           0        4.163013    0.391930   16.441897
      5          6           0        3.424029    0.964931   17.630928
      6          8           0        3.135983    2.109940   17.611977
      7          7           0        3.173000    0.128992   18.647032
      8          6           0        2.558977    0.516067   19.903101
      9          6           0        5.687994    0.750071   16.389075
     10          8           0        6.263960    0.129950   15.235949
     11          6           0        3.349913   -0.122035   21.014039
     12          8           0        3.366017   -1.339091   21.140011
     13          7           0        4.067001    0.688033   21.767917
     14          6           0        4.888038    0.205078   22.850949
     15          6           0        4.350082    0.769049   24.174053
     16          8           0        4.161063    1.981107   24.268978
     17          7           0        4.065084   -0.119936   25.150914
     18          6           0        3.720068    0.313040   26.514980
     19          6           0        1.137944   -0.021057   19.983053
     20          8           0        0.393002    0.394045   18.824007
     21          6           0        0.486025    0.501046   21.166990
     22          1           0        2.702387    0.501166   13.441098
     23          1           0        6.213678    0.362216   17.236498
     24          1           0        5.910482    0.488728   22.712926
     25          1           0        4.574076    0.191940   27.148151
     26          1           0        2.864214   -0.202150   26.898376
 ---------------------------------------------------------------------
                    Distance matrix (angstroms):
                    1          2          3          4          5
     1  C    0.000000
     2  O    1.226601   0.000000
     3  N    1.320165   2.249143   0.000000
     4  C    2.405692   2.757085   1.449992   0.000000
     5  C    3.421849   3.805236   2.370900   1.512687   0.000000
     6  O    3.852375   4.513791   2.671515   2.318499   1.180837
     7  N    4.289948   4.336434   3.482516   2.431436   1.339506
     8  C    5.579731   5.659524   4.746318   3.816841   2.472360
     9  C    3.435134   3.827267   2.481949   1.567362   2.591120
    10  O    3.374412   3.624442   2.884253   2.436581   3.807668
    11  C    6.663946   6.594483   5.841351   4.672234   3.554212
    12  O    6.928503   6.639742   6.286480   5.069902   4.198279
    13  N    7.509817   7.568570   6.535295   5.335108   4.195803
    14  C    8.697374   8.666096   7.748364   6.452636   5.474423
    15  C    9.930843   9.949433   8.955116   7.743607   6.611235
    16  O   10.160744  10.320396   9.098646   7.986781   6.755704
    17  N   10.842933  10.744711   9.957203   8.724595   7.624832
    18  C   12.177726  12.115142  11.270153  10.083126   8.912855
    19  C    5.924550   5.876207   5.348150   4.675615   3.425032
    20  O    5.183189   5.252585   4.739877   4.459533   3.307034
    21  C    7.271602   7.290299   6.632314   5.988209   4.620691
    22  H    1.070000   2.002001   2.017599   3.339185   4.276742
    23  H    4.319317   4.511182   3.412013   2.199432   2.881143
    24  H    8.853470   8.869684   7.847140   6.510669   5.677668
    25  H   12.883636  12.808605  11.956537  10.716008   9.617570
    26  H   12.540531  12.421413  11.703506  10.553566   9.357407
                    6          7          8          9         10
     6  O    0.000000
     7  N    2.235366   0.000000
     8  C    2.850020   1.450710   0.000000
     9  C    3.139665   3.436467   4.711039   0.000000
    10  O    4.398877   4.603208   5.971457   1.430380   0.000000
    11  C    4.074494   2.386846   1.505636   5.255234   6.476225
    12  O    4.939206   2.899563   2.371260   5.685734   6.738999
    13  N    4.490039   3.294190   2.404422   5.618132   6.914094
    14  C    5.843374   4.540932   3.769754   6.533970   7.738671
    15  C    6.806825   5.687105   4.638221   7.899130   9.163028
    16  O    6.736694   6.001073   4.875849   8.120335   9.457514
    17  N    7.916510   6.569494   5.496581   8.953244  10.158938
    18  C    9.101289   7.889092   6.716122  10.324616  11.563799
    19  C    3.762354   2.439040   1.521258   5.849297   6.988121
    20  O    3.455034   2.798207   2.422970   5.838886   6.885642
    21  C    4.716877   3.702492   2.427915   7.067600   8.288516
    22  H    4.491368   5.240394   6.463611   4.203138   4.005508
    23  H    3.559176   3.360019   4.526730   1.070000   2.014614
    24  H    6.028752   4.914744   4.373608   6.333158   7.493920
    25  H    9.832876   8.616031   7.527047  10.830976  12.031629
    26  H    9.573757   8.263757   7.038670  10.923639  12.152398
                   11         12         13         14         15
    11  C    0.000000
    12  O    1.223664   0.000000
    13  N    1.318619   2.234922   0.000000
    14  C    2.418071   2.761940   1.442326   0.000000
    15  C    3.432209   3.823356   2.424086   1.535599   0.000000
    16  O    3.959267   4.631009   2.817125   2.386121   1.230375
    17  N    4.198238   4.249985   3.478144   2.464290   1.351212
    18  C    5.530521   5.634286   4.774473   3.847199   2.466739
    19  C    2.442527   2.835503   3.502559   4.726433   5.339155
    20  O    3.715630   4.148067   4.717129   6.037990   6.664992
    21  C    2.934874   3.417775   3.635859   4.722397   4.903590
    22  H    7.626080   7.943564   8.439964   9.664886  10.861997
    23  H    4.765025   5.122601   5.024753   5.770968   7.195011
    24  H    3.133011   3.505608   2.081151   1.070000   2.155997
    25  H    6.262945   6.316740   5.426799   4.308676   3.037842
    26  H    5.904892   5.890943   5.344225   4.543498   3.251610
                   16         17         18         19         20
    16  O    0.000000
    17  N    2.280659   0.000000
    18  C    2.832217   1.472135   0.000000
    19  C    5.614006   5.940093   7.031718   0.000000
    20  O    6.809168   7.333357   8.380155   1.438971   0.000000
    21  C    5.031781   5.391376   6.252630   1.448895   2.347269
    22  H   11.025467  11.805189  13.114780   6.746656   5.858365
    23  H    7.502653   8.215042   9.607848   5.783903   6.033363
    24  H    2.776501   3.117652   4.391401   5.521703   6.750944
    25  H    3.414870   2.084537   1.070000   7.949276   9.317382
    26  H    3.655430   2.121904   1.070000   7.129831   8.465092
                   21         22         23         24         25
    21  C    0.000000
    22  H    8.037516   0.000000
    23  H    6.947953   5.172381   0.000000
    24  H    5.640462   9.811157   5.486273   0.000000
    25  H    7.251344  13.837707  10.047794   4.641690   0.000000
    26  H    6.244923  13.476616  10.241549   5.222553   1.772378
                   26
    26  H    0.000000
 Symmetry turned off by external request.
 Stoichiometry    C11H5N4O6(1+)
 Framework group  C1[X(C11H5N4O6)]
 Deg. of freedom    72
 Full point group                 C1      NOp   1
 Rotational constants (GHZ):           0.6333460           0.1282458           0.1162139
 Leave Link  202 at Wed Jan 12 18:27:09 2022, MaxMem=   402653184 cpu:               3.1 elap:               0.5
 (Enter /work/01114/jfonner/frontera/gaussian/16rC.01/g16/l301.exe)
 Standard basis: VSTO-6G (5D, 7F)
 Ernie: Thresh=  0.10000D-02 Tol=  0.10000D-05 Strict=F.
  NNHCO=     0 NNPyr=     0 NCTC=     0               EPep=         0.000000000
    EC=       663.617986793  ECS=         6.272161117   EG=         0.568683449
   EHC=         0.002230730  EAt=      -137.663748154  AtH=         4.700572853
 EPDDG=         0.000000000  ECC=       670.461062090 EAtT=       142.364321007
    89 basis functions,   534 primitive gaussians,    89 cartesian basis functions
    52 alpha electrons       52 beta electrons
       nuclear repulsion energy       812.8253830967 Hartrees.
 IExCor=    0 DFT=F Ex=HF Corr=None ExCW=0 ScaHFX=  1.000000
 ScaDFX=  1.000000  1.000000  1.000000  1.000000 ScalE2=  1.000000  1.000000
 IRadAn=      5 IRanWt=     -1 IRanGd=            0 ICorTp=0 IEmpDi=  4
 Integral buffers will be    131072 words long.
 Regular integral format.
 Two-electron integral symmetry is turned off.
 Leave Link  301 at Wed Jan 12 18:27:10 2022, MaxMem=   402653184 cpu:               4.1 elap:               0.5
 (Enter /work/01114/jfonner/frontera/gaussian/16rC.01/g16/l302.exe)
 Do NDO integrals.
 NPDir=0 NMtPBC=     1 NCelOv=     1 NCel=       1 NClECP=     1 NCelD=      1
         NCelK=      1 NCelE2=     1 NClLst=     1 CellRange=     0.0.
 One-electron integrals computed using PRISM.
 NBasis=    89 RedAO= F EigKep=  0.00D+00  NBF=    89
 NBsUse=    89 1.00D-04 EigRej=  0.00D+00 NBFU=    89
 Leave Link  302 at Wed Jan 12 18:27:13 2022, MaxMem=   402653184 cpu:              22.3 elap:               3.2
 (Enter /work/01114/jfonner/frontera/gaussian/16rC.01/g16/l303.exe)
 DipDrv:  MaxL=1.
 Leave Link  303 at Wed Jan 12 18:27:13 2022, MaxMem=   402653184 cpu:               3.3 elap:               0.5
 (Enter /work/01114/jfonner/frontera/gaussian/16rC.01/g16/l401.exe)
 Simple Huckel Guess.
 JPrj=0 DoOrth=F DoCkMO=F.
 Leave Link  401 at Wed Jan 12 18:27:15 2022, MaxMem=   402653184 cpu:              13.2 elap:               1.8
 (Enter /work/01114/jfonner/frontera/gaussian/16rC.01/g16/l502.exe)
 Keep J ints in memory in canonical form, NReq=883584.
 FoFCou: FMM=F IPFlag=           0 FMFlag=           0 FMFlg1=           0
         NFxFlg=           0 DoJE=F BraDBF=F KetDBF=F FulRan=T
         wScrn=  0.000000 ICntrl=       600 IOpCl=  2 I1Cent=           0 NGrid=           0
         NMat0=    1 NMatS0=    215 NMatT0=    0 NMatD0=    1 NMtDS0=    0 NMtDT0=    0
 Symmetry not used in FoFCou.
 Two-electron integral symmetry not used.
 Closed shell SCF:
 Using DIIS extrapolation, IDIIS=  1040.
 Overlap will be assumed to be unity.
 NGot=   402653184 LenX=   402548299 LenY=   402539937
 Requested convergence on RMS density matrix=1.00D-08 within 128 cycles.
 Requested convergence on MAX density matrix=1.00D-06.
 Requested convergence on             energy=1.00D-06.
 No special actions if energy rises.

 Cycle   1  Pass 1  IDiag  1:
 E=  2.33214624919594    
 DIIS: error= 4.01D-02 at cycle   1 NSaved=   1.
 NSaved= 1 IEnMin= 1 EnMin=  2.33214624919594     IErMin= 1 ErrMin= 4.01D-02
 ErrMax= 4.01D-02  0.00D+00 EMaxC= 1.00D-01 BMatC= 2.60D-01 BMatP= 2.60D-01
 IDIUse=3 WtCom= 5.99D-01 WtEn= 4.01D-01
 Coeff-Com:  0.100D+01
 Coeff-En:   0.100D+01
 Coeff:      0.100D+01
 GapD=    2.000 DampG=2.000 DampE=0.500 DampFc=1.0000 IDamp=-1.
 RMSDP=1.78D-02 MaxDP=3.16D-01              OVMax= 0.00D+00

 Cycle   2  Pass 1  IDiag  1:
 E=  1.36524374903115     Delta-E=       -0.966902500165 Rises=F Damp=F
 DIIS: error= 3.59D-02 at cycle   2 NSaved=   2.
 NSaved= 2 IEnMin= 2 EnMin=  1.36524374903115     IErMin= 2 ErrMin= 3.59D-02
 ErrMax= 3.59D-02  0.00D+00 EMaxC= 1.00D-01 BMatC= 8.27D-02 BMatP= 2.60D-01
 IDIUse=3 WtCom= 6.41D-01 WtEn= 3.59D-01
 Coeff-Com:  0.103D+00 0.897D+00
 Coeff-En:   0.000D+00 0.100D+01
 Coeff:      0.661D-01 0.934D+00
 RMSDP=1.05D-02 MaxDP=2.65D-01 DE=-9.67D-01 OVMax= 0.00D+00

 Cycle   3  Pass 1  IDiag  1:
 E=  1.09731281809843     Delta-E=       -0.267930930933 Rises=F Damp=F
 DIIS: error= 1.00D-02 at cycle   3 NSaved=   3.
 NSaved= 3 IEnMin= 3 EnMin=  1.09731281809843     IErMin= 3 ErrMin= 1.00D-02
 ErrMax= 1.00D-02  0.00D+00 EMaxC= 1.00D-01 BMatC= 1.81D-02 BMatP= 8.27D-02
 IDIUse=3 WtCom= 9.00D-01 WtEn= 1.00D-01
 Coeff-Com: -0.203D+00 0.209D+00 0.994D+00
 Coeff-En:   0.000D+00 0.000D+00 0.100D+01
 Coeff:     -0.183D+00 0.188D+00 0.995D+00
 RMSDP=4.39D-03 MaxDP=5.79D-02 DE=-2.68D-01 OVMax= 0.00D+00

 Cycle   4  Pass 1  IDiag  3:
 E=  1.01891375703542     Delta-E=       -0.078399061063 Rises=F Damp=F
 DIIS: error= 3.33D-03 at cycle   4 NSaved=   4.
 NSaved= 4 IEnMin= 4 EnMin=  1.01891375703542     IErMin= 4 ErrMin= 3.33D-03
 ErrMax= 3.33D-03  0.00D+00 EMaxC= 1.00D-01 BMatC= 1.32D-03 BMatP= 1.81D-02
 IDIUse=3 WtCom= 9.67D-01 WtEn= 3.33D-02
 Coeff-Com:  0.477D-01-0.673D-01-0.229D+00 0.125D+01
 Coeff-En:   0.000D+00 0.000D+00 0.000D+00 0.100D+01
 Coeff:      0.461D-01-0.651D-01-0.222D+00 0.124D+01
 Gap=     0.119 Goal=   None    Shift=    0.000
 RMSDP=2.07D-03 MaxDP=3.82D-02 DE=-7.84D-02 OVMax= 5.33D-02

 Cycle   5  Pass 1  IDiag  3:
 E=  1.00694664651098     Delta-E=       -0.011967110524 Rises=F Damp=F
 DIIS: error= 1.18D-03 at cycle   5 NSaved=   5.
 NSaved= 5 IEnMin= 5 EnMin=  1.00694664651098     IErMin= 5 ErrMin= 1.18D-03
 ErrMax= 1.18D-03  0.00D+00 EMaxC= 1.00D-01 BMatC= 3.04D-04 BMatP= 1.32D-03
 IDIUse=3 WtCom= 9.88D-01 WtEn= 1.18D-02
 Coeff-Com: -0.261D-02 0.167D-02-0.209D-01-0.301D+00 0.132D+01
 Coeff-En:   0.000D+00 0.000D+00 0.000D+00 0.000D+00 0.100D+01
 Coeff:     -0.258D-02 0.165D-02-0.207D-01-0.297D+00 0.132D+01
 Gap=     0.136 Goal=   None    Shift=    0.000
 RMSDP=1.64D-03 MaxDP=2.14D-02 DE=-1.20D-02 OVMax= 5.83D-02

 Cycle   6  Pass 1  IDiag  3:
 E=  1.00173657202743     Delta-E=       -0.005210074484 Rises=F Damp=F
 DIIS: error= 1.14D-03 at cycle   6 NSaved=   6.
 NSaved= 6 IEnMin= 6 EnMin=  1.00173657202743     IErMin= 6 ErrMin= 1.14D-03
 ErrMax= 1.14D-03  0.00D+00 EMaxC= 1.00D-01 BMatC= 1.35D-04 BMatP= 3.04D-04
 IDIUse=3 WtCom= 9.89D-01 WtEn= 1.14D-02
 Coeff-Com: -0.487D-02 0.727D-02 0.378D-01-0.109D+00-0.277D+00 0.135D+01
 Coeff-En:   0.000D+00 0.000D+00 0.000D+00 0.000D+00 0.000D+00 0.100D+01
 Coeff:     -0.482D-02 0.719D-02 0.373D-01-0.108D+00-0.274D+00 0.134D+01
 Gap=     0.137 Goal=   None    Shift=    0.000
 RMSDP=1.32D-03 MaxDP=1.93D-02 DE=-5.21D-03 OVMax= 4.66D-02

 Cycle   7  Pass 1  IDiag  3:
 E= 0.998705333803741     Delta-E=       -0.003031238224 Rises=F Damp=F
 DIIS: error= 1.06D-03 at cycle   7 NSaved=   7.
 NSaved= 7 IEnMin= 7 EnMin= 0.998705333803741     IErMin= 7 ErrMin= 1.06D-03
 ErrMax= 1.06D-03  0.00D+00 EMaxC= 1.00D-01 BMatC= 8.01D-05 BMatP= 1.35D-04
 IDIUse=3 WtCom= 9.89D-01 WtEn= 1.06D-02
 Coeff-Com:  0.147D-02-0.260D-02 0.556D-02 0.108D+00-0.258D+00-0.649D+00
 Coeff-Com:  0.180D+01
 Coeff-En:   0.000D+00 0.000D+00 0.000D+00 0.000D+00 0.000D+00 0.000D+00
 Coeff-En:   0.100D+01
 Coeff:      0.145D-02-0.257D-02 0.550D-02 0.107D+00-0.255D+00-0.643D+00
 Coeff:      0.179D+01
 Gap=     0.139 Goal=   None    Shift=    0.000
 RMSDP=1.54D-03 MaxDP=2.35D-02 DE=-3.03D-03 OVMax= 5.81D-02

 Cycle   8  Pass 1  IDiag  3:
 E= 0.996035253616697     Delta-E=       -0.002670080187 Rises=F Damp=F
 DIIS: error= 8.81D-04 at cycle   8 NSaved=   8.
 NSaved= 8 IEnMin= 8 EnMin= 0.996035253616697     IErMin= 8 ErrMin= 8.81D-04
 ErrMax= 8.81D-04  0.00D+00 EMaxC= 1.00D-01 BMatC= 4.99D-05 BMatP= 8.01D-05
 IDIUse=3 WtCom= 9.91D-01 WtEn= 8.81D-03
 Coeff-Com:  0.786D-03-0.416D-02-0.504D-02 0.954D-02 0.191D+00-0.253D+00
 Coeff-Com: -0.565D+00 0.163D+01
 Coeff-En:   0.000D+00 0.000D+00 0.000D+00 0.000D+00 0.000D+00 0.000D+00
 Coeff-En:   0.000D+00 0.100D+01
 Coeff:      0.779D-03-0.412D-02-0.499D-02 0.946D-02 0.190D+00-0.251D+00
 Coeff:     -0.560D+00 0.162D+01
 Gap=     0.142 Goal=   None    Shift=    0.000
 RMSDP=1.13D-03 MaxDP=1.86D-02 DE=-2.67D-03 OVMax= 4.89D-02

 Cycle   9  Pass 1  IDiag  3:
 E= 0.994483150636484     Delta-E=       -0.001552102980 Rises=F Damp=F
 DIIS: error= 6.89D-04 at cycle   9 NSaved=   9.
 NSaved= 9 IEnMin= 9 EnMin= 0.994483150636484     IErMin= 9 ErrMin= 6.89D-04
 ErrMax= 6.89D-04  0.00D+00 EMaxC= 1.00D-01 BMatC= 3.25D-05 BMatP= 4.99D-05
 IDIUse=3 WtCom= 9.93D-01 WtEn= 6.89D-03
 Coeff-Com: -0.115D-03-0.471D-03 0.382D-02-0.328D-01 0.145D-01 0.214D+00
 Coeff-Com: -0.256D+00-0.977D+00 0.203D+01
 Coeff-En:   0.000D+00 0.000D+00 0.000D+00 0.000D+00 0.000D+00 0.000D+00
 Coeff-En:   0.000D+00 0.000D+00 0.100D+01
 Coeff:     -0.115D-03-0.468D-03 0.379D-02-0.326D-01 0.144D-01 0.212D+00
 Coeff:     -0.254D+00-0.970D+00 0.203D+01
 Gap=     0.143 Goal=   None    Shift=    0.000
 RMSDP=1.29D-03 MaxDP=1.99D-02 DE=-1.55D-03 OVMax= 6.04D-02

 Cycle  10  Pass 1  IDiag  3:
 E= 0.993141155966896     Delta-E=       -0.001341994670 Rises=F Damp=F
 DIIS: error= 4.91D-04 at cycle  10 NSaved=  10.
 NSaved=10 IEnMin=10 EnMin= 0.993141155966896     IErMin=10 ErrMin= 4.91D-04
 ErrMax= 4.91D-04  0.00D+00 EMaxC= 1.00D-01 BMatC= 2.11D-05 BMatP= 3.25D-05
 IDIUse=3 WtCom= 9.95D-01 WtEn= 4.91D-03
 Coeff-Com:  0.256D-03-0.170D-03 0.157D-02-0.254D-02-0.250D-01 0.931D-01
 Coeff-Com:  0.577D-01-0.295D+00-0.354D+00 0.152D+01
 Coeff-En:   0.000D+00 0.000D+00 0.000D+00 0.000D+00 0.000D+00 0.000D+00
 Coeff-En:   0.000D+00 0.000D+00 0.000D+00 0.100D+01
 Coeff:      0.255D-03-0.169D-03 0.156D-02-0.253D-02-0.249D-01 0.926D-01
 Coeff:      0.574D-01-0.293D+00-0.352D+00 0.152D+01
 Gap=     0.143 Goal=   None    Shift=    0.000
 RMSDP=8.52D-04 MaxDP=1.21D-02 DE=-1.34D-03 OVMax= 4.16D-02

 Cycle  11  Pass 1  IDiag  3:
 E= 0.992456545774417     Delta-E=       -0.000684610192 Rises=F Damp=F
 DIIS: error= 4.04D-04 at cycle  11 NSaved=  11.
 NSaved=11 IEnMin=11 EnMin= 0.992456545774417     IErMin=11 ErrMin= 4.04D-04
 ErrMax= 4.04D-04  0.00D+00 EMaxC= 1.00D-01 BMatC= 1.23D-05 BMatP= 2.11D-05
 IDIUse=3 WtCom= 9.96D-01 WtEn= 4.04D-03
 Coeff-Com:  0.548D-03 0.338D-03-0.386D-02 0.604D-02-0.135D-01-0.676D-01
 Coeff-Com:  0.163D+00-0.115D+00-0.217D+00-0.421D+00 0.167D+01
 Coeff-En:   0.000D+00 0.000D+00 0.000D+00 0.000D+00 0.000D+00 0.000D+00
 Coeff-En:   0.000D+00 0.000D+00 0.000D+00 0.000D+00 0.100D+01
 Coeff:      0.546D-03 0.337D-03-0.384D-02 0.602D-02-0.134D-01-0.674D-01
 Coeff:      0.162D+00-0.115D+00-0.216D+00-0.419D+00 0.167D+01
 Gap=     0.143 Goal=   None    Shift=    0.000
 RMSDP=9.84D-04 MaxDP=1.41D-02 DE=-6.85D-04 OVMax= 4.85D-02

 Cycle  12  Pass 1  IDiag  3:
 E= 0.991927750848163     Delta-E=       -0.000528794926 Rises=F Damp=F
 DIIS: error= 3.14D-04 at cycle  12 NSaved=  12.
 NSaved=12 IEnMin=12 EnMin= 0.991927750848163     IErMin=12 ErrMin= 3.14D-04
 ErrMax= 3.14D-04  0.00D+00 EMaxC= 1.00D-01 BMatC= 8.87D-06 BMatP= 1.23D-05
 IDIUse=3 WtCom= 9.97D-01 WtEn= 3.14D-03
 Coeff-Com:  0.854D-04 0.226D-03 0.158D-03 0.169D-02-0.323D-01 0.854D-01
 Coeff-Com: -0.506D-01-0.308D-01 0.195D+00-0.626D+00 0.332D+00 0.113D+01
 Coeff-En:   0.000D+00 0.000D+00 0.000D+00 0.000D+00 0.000D+00 0.000D+00
 Coeff-En:   0.000D+00 0.000D+00 0.000D+00 0.000D+00 0.000D+00 0.100D+01
 Coeff:      0.851D-04 0.226D-03 0.157D-03 0.168D-02-0.322D-01 0.851D-01
 Coeff:     -0.504D-01-0.307D-01 0.194D+00-0.625D+00 0.331D+00 0.113D+01
 Gap=     0.142 Goal=   None    Shift=    0.000
 RMSDP=4.14D-04 MaxDP=6.99D-03 DE=-5.29D-04 OVMax= 2.04D-02

 Cycle  13  Pass 1  IDiag  3:
 E= 0.991739518243321     Delta-E=       -0.000188232605 Rises=F Damp=F
 DIIS: error= 2.55D-04 at cycle  13 NSaved=  13.
 NSaved=13 IEnMin=13 EnMin= 0.991739518243321     IErMin=13 ErrMin= 2.55D-04
 ErrMax= 2.55D-04  0.00D+00 EMaxC= 1.00D-01 BMatC= 3.78D-06 BMatP= 8.87D-06
 IDIUse=3 WtCom= 9.97D-01 WtEn= 2.55D-03
 Coeff-Com: -0.399D-05 0.227D-03-0.585D-03 0.316D-02-0.972D-02-0.107D-01
 Coeff-Com:  0.870D-02 0.159D-01 0.149D-01-0.330D-01-0.390D+00-0.122D+00
 Coeff-Com:  0.152D+01
 Coeff-En:   0.000D+00 0.000D+00 0.000D+00 0.000D+00 0.000D+00 0.000D+00
 Coeff-En:   0.000D+00 0.000D+00 0.000D+00 0.000D+00 0.000D+00 0.000D+00
 Coeff-En:   0.100D+01
 Coeff:     -0.398D-05 0.226D-03-0.584D-03 0.315D-02-0.970D-02-0.107D-01
 Coeff:      0.867D-02 0.159D-01 0.149D-01-0.330D-01-0.389D+00-0.121D+00
 Coeff:      0.152D+01
 Gap=     0.142 Goal=   None    Shift=    0.000
 RMSDP=6.41D-04 MaxDP=1.09D-02 DE=-1.88D-04 OVMax= 3.24D-02

 Cycle  14  Pass 1  IDiag  3:
 E= 0.991569258079267     Delta-E=       -0.000170260164 Rises=F Damp=F
 DIIS: error= 1.86D-04 at cycle  14 NSaved=  14.
 NSaved=14 IEnMin=14 EnMin= 0.991569258079267     IErMin=14 ErrMin= 1.86D-04
 ErrMax= 1.86D-04  0.00D+00 EMaxC= 1.00D-01 BMatC= 2.82D-06 BMatP= 3.78D-06
 IDIUse=3 WtCom= 9.98D-01 WtEn= 1.86D-03
 Coeff-Com:  0.661D-04 0.116D-03 0.453D-04 0.174D-02-0.169D-01 0.298D-01
 Coeff-Com: -0.239D-01 0.161D-01 0.409D-01-0.487D-01-0.284D-01-0.419D+00
 Coeff-Com:  0.399D+00 0.105D+01
 Coeff-En:   0.000D+00 0.000D+00 0.000D+00 0.000D+00 0.000D+00 0.000D+00
 Coeff-En:   0.000D+00 0.000D+00 0.000D+00 0.000D+00 0.000D+00 0.000D+00
 Coeff-En:   0.000D+00 0.100D+01
 Coeff:      0.659D-04 0.115D-03 0.452D-04 0.173D-02-0.169D-01 0.297D-01
 Coeff:     -0.239D-01 0.160D-01 0.408D-01-0.486D-01-0.283D-01-0.418D+00
 Coeff:      0.398D+00 0.105D+01
 Gap=     0.142 Goal=   None    Shift=    0.000
 RMSDP=2.38D-04 MaxDP=4.51D-03 DE=-1.70D-04 OVMax= 1.16D-02

 Cycle  15  Pass 1  IDiag  3:
 E= 0.991513847296574     Delta-E=       -0.000055410783 Rises=F Damp=F
 DIIS: error= 1.42D-04 at cycle  15 NSaved=  15.
 NSaved=15 IEnMin=15 EnMin= 0.991513847296574     IErMin=15 ErrMin= 1.42D-04
 ErrMax= 1.42D-04  0.00D+00 EMaxC= 1.00D-01 BMatC= 1.08D-06 BMatP= 2.82D-06
 IDIUse=3 WtCom= 9.99D-01 WtEn= 1.42D-03
 Coeff-Com:  0.146D-03-0.114D-03-0.674D-03 0.279D-02-0.535D-02-0.339D-02
 Coeff-Com:  0.154D-01-0.205D-01 0.341D-01-0.189D-02 0.510D-01-0.604D-01
 Coeff-Com: -0.485D+00-0.414D-01 0.152D+01
 Coeff-En:   0.000D+00 0.000D+00 0.000D+00 0.000D+00 0.000D+00 0.000D+00
 Coeff-En:   0.000D+00 0.000D+00 0.000D+00 0.000D+00 0.000D+00 0.000D+00
 Coeff-En:   0.000D+00 0.000D+00 0.100D+01
 Coeff:      0.146D-03-0.114D-03-0.673D-03 0.279D-02-0.535D-02-0.338D-02
 Coeff:      0.154D-01-0.205D-01 0.340D-01-0.189D-02 0.509D-01-0.603D-01
 Coeff:     -0.484D+00-0.414D-01 0.151D+01
 Gap=     0.141 Goal=   None    Shift=    0.000
 RMSDP=3.34D-04 MaxDP=6.49D-03 DE=-5.54D-05 OVMax= 1.69D-02

 Cycle  16  Pass 1  IDiag  3:
 E= 0.991470843060824     Delta-E=       -0.000043004236 Rises=F Damp=F
 DIIS: error= 8.82D-05 at cycle  16 NSaved=  16.
 NSaved=16 IEnMin=16 EnMin= 0.991470843060824     IErMin=16 ErrMin= 8.82D-05
 ErrMax= 8.82D-05  0.00D+00 EMaxC= 1.00D-01 BMatC= 7.16D-07 BMatP= 1.08D-06
 IDIUse=1 WtCom= 1.00D+00 WtEn= 0.00D+00
 Coeff-Com: -0.652D-04 0.453D-04 0.265D-03-0.191D-02 0.225D-02-0.722D-02
 Coeff-Com:  0.815D-02-0.194D-01 0.266D-01-0.142D-06 0.180D-01-0.472D-01
 Coeff-Com:  0.227D-01-0.340D+00 0.182D+00 0.116D+01
 Coeff:     -0.652D-04 0.453D-04 0.265D-03-0.191D-02 0.225D-02-0.722D-02
 Coeff:      0.815D-02-0.194D-01 0.266D-01-0.142D-06 0.180D-01-0.472D-01
 Coeff:      0.227D-01-0.340D+00 0.182D+00 0.116D+01
 Gap=     0.141 Goal=   None    Shift=    0.000
 RMSDP=1.30D-04 MaxDP=2.58D-03 DE=-4.30D-05 OVMax= 6.15D-03

 Cycle  17  Pass 1  IDiag  3:
 E= 0.991457221738415     Delta-E=       -0.000013621322 Rises=F Damp=F
 DIIS: error= 6.03D-05 at cycle  17 NSaved=  17.
 NSaved=17 IEnMin=17 EnMin= 0.991457221738415     IErMin=17 ErrMin= 6.03D-05
 ErrMax= 6.03D-05  0.00D+00 EMaxC= 1.00D-01 BMatC= 2.59D-07 BMatP= 7.16D-07
 IDIUse=1 WtCom= 1.00D+00 WtEn= 0.00D+00
 Coeff-Com:  0.828D-04-0.793D-04-0.212D-03 0.606D-03-0.214D-02 0.828D-02
 Coeff-Com: -0.101D-01 0.307D-02-0.113D-02 0.329D-02 0.270D-01 0.192D-02
 Coeff-Com: -0.268D-01-0.959D-02-0.303D+00-0.190D+00 0.150D+01
 Coeff:      0.828D-04-0.793D-04-0.212D-03 0.606D-03-0.214D-02 0.828D-02
 Coeff:     -0.101D-01 0.307D-02-0.113D-02 0.329D-02 0.270D-01 0.192D-02
 Coeff:     -0.268D-01-0.959D-02-0.303D+00-0.190D+00 0.150D+01
 Gap=     0.141 Goal=   None    Shift=    0.000
 RMSDP=1.38D-04 MaxDP=2.80D-03 DE=-1.36D-05 OVMax= 6.48D-03

 Cycle  18  Pass 1  IDiag  3:
 E= 0.991449147533558     Delta-E=       -0.000008074205 Rises=F Damp=F
 DIIS: error= 3.15D-05 at cycle  18 NSaved=  18.
 NSaved=18 IEnMin=18 EnMin= 0.991449147533558     IErMin=18 ErrMin= 3.15D-05
 ErrMax= 3.15D-05  0.00D+00 EMaxC= 1.00D-01 BMatC= 1.44D-07 BMatP= 2.59D-07
 IDIUse=1 WtCom= 1.00D+00 WtEn= 0.00D+00
 Coeff-Com:  0.191D-04-0.485D-05-0.245D-03-0.462D-04 0.155D-02-0.443D-02
 Coeff-Com:  0.634D-02-0.803D-02 0.550D-02-0.268D-02 0.106D-01-0.886D-02
 Coeff-Com: -0.267D-01 0.696D-02 0.154D+00-0.385D+00-0.923D-01 0.134D+01
 Coeff:      0.191D-04-0.485D-05-0.245D-03-0.462D-04 0.155D-02-0.443D-02
 Coeff:      0.634D-02-0.803D-02 0.550D-02-0.268D-02 0.106D-01-0.886D-02
 Coeff:     -0.267D-01 0.696D-02 0.154D+00-0.385D+00-0.923D-01 0.134D+01
 Gap=     0.141 Goal=   None    Shift=    0.000
 RMSDP=5.93D-05 MaxDP=1.10D-03 DE=-8.07D-06 OVMax= 2.43D-03

 Cycle  19  Pass 1  IDiag  3:
 E= 0.991446585020185     Delta-E=       -0.000002562513 Rises=F Damp=F
 DIIS: error= 2.00D-05 at cycle  19 NSaved=  19.
 NSaved=19 IEnMin=19 EnMin= 0.991446585020185     IErMin=19 ErrMin= 2.00D-05
 ErrMax= 2.00D-05  0.00D+00 EMaxC= 1.00D-01 BMatC= 4.44D-08 BMatP= 1.44D-07
 IDIUse=1 WtCom= 1.00D+00 WtEn= 0.00D+00
 Coeff-Com:  0.381D-04 0.289D-04-0.217D-03 0.375D-03-0.115D-02 0.179D-02
 Coeff-Com: -0.718D-03 0.445D-03-0.241D-02 0.120D-02 0.504D-02-0.103D-02
 Coeff-Com:  0.910D-02 0.713D-02-0.113D-01 0.128D-01-0.237D+00-0.224D+00
 Coeff-Com:  0.144D+01
 Coeff:      0.381D-04 0.289D-04-0.217D-03 0.375D-03-0.115D-02 0.179D-02
 Coeff:     -0.718D-03 0.445D-03-0.241D-02 0.120D-02 0.504D-02-0.103D-02
 Coeff:      0.910D-02 0.713D-02-0.113D-01 0.128D-01-0.237D+00-0.224D+00
 Coeff:      0.144D+01
 Gap=     0.141 Goal=   None    Shift=    0.000
 RMSDP=4.17D-05 MaxDP=6.94D-04 DE=-2.56D-06 OVMax= 1.38D-03

 Cycle  20  Pass 1  IDiag  3:
 E= 0.991445497904692     Delta-E=       -0.000001087115 Rises=F Damp=F
 DIIS: error= 1.37D-05 at cycle  20 NSaved=  20.
 NSaved=20 IEnMin=20 EnMin= 0.991445497904692     IErMin=20 ErrMin= 1.37D-05
 ErrMax= 1.37D-05  0.00D+00 EMaxC= 1.00D-01 BMatC= 1.64D-08 BMatP= 4.44D-08
 IDIUse=1 WtCom= 1.00D+00 WtEn= 0.00D+00
 Coeff-Com: -0.173D-04 0.356D-04-0.544D-04-0.381D-03 0.164D-02-0.261D-02
 Coeff-Com:  0.184D-02-0.965D-03 0.254D-03 0.671D-03-0.176D-02-0.102D-02
 Coeff-Com: -0.744D-02 0.580D-02 0.328D-01-0.226D-01 0.320D-01-0.101D+00
 Coeff-Com: -0.486D+00 0.155D+01
 Coeff:     -0.173D-04 0.356D-04-0.544D-04-0.381D-03 0.164D-02-0.261D-02
 Coeff:      0.184D-02-0.965D-03 0.254D-03 0.671D-03-0.176D-02-0.102D-02
 Coeff:     -0.744D-02 0.580D-02 0.328D-01-0.226D-01 0.320D-01-0.101D+00
 Coeff:     -0.486D+00 0.155D+01
 Gap=     0.141 Goal=   None    Shift=    0.000
 RMSDP=2.19D-05 MaxDP=3.06D-04 DE=-1.09D-06 OVMax= 5.86D-04

 Cycle  21  Pass 1  IDiag  3:
 E= 0.991445143879673     Delta-E=       -0.000000354025 Rises=F Damp=F
 DIIS: error= 9.38D-06 at cycle  21 NSaved=  20.
 NSaved=20 IEnMin=20 EnMin= 0.991445143879673     IErMin=20 ErrMin= 9.38D-06
 ErrMax= 9.38D-06  0.00D+00 EMaxC= 1.00D-01 BMatC= 5.76D-09 BMatP= 1.64D-08
 IDIUse=1 WtCom= 1.00D+00 WtEn= 0.00D+00
 Coeff-Com:  0.451D-04-0.351D-04 0.129D-04-0.981D-03 0.195D-02-0.112D-02
 Coeff-Com:  0.177D-03 0.237D-03-0.735D-03 0.297D-02-0.298D-02 0.357D-02
 Coeff-Com: -0.452D-02 0.241D-02 0.567D-02 0.713D-02 0.140D-01-0.723D-01
 Coeff-Com: -0.526D+00 0.157D+01
 Coeff:      0.451D-04-0.351D-04 0.129D-04-0.981D-03 0.195D-02-0.112D-02
 Coeff:      0.177D-03 0.237D-03-0.735D-03 0.297D-02-0.298D-02 0.357D-02
 Coeff:     -0.452D-02 0.241D-02 0.567D-02 0.713D-02 0.140D-01-0.723D-01
 Coeff:     -0.526D+00 0.157D+01
 Gap=     0.141 Goal=   None    Shift=    0.000
 RMSDP=1.26D-05 MaxDP=2.31D-04 DE=-3.54D-07 OVMax= 4.34D-04

 Cycle  22  Pass 1  IDiag  3:
 E= 0.991445011209748     Delta-E=       -0.000000132670 Rises=F Damp=F
 DIIS: error= 6.24D-06 at cycle  22 NSaved=  20.
 NSaved=20 IEnMin=20 EnMin= 0.991445011209748     IErMin=20 ErrMin= 6.24D-06
 ErrMax= 6.24D-06  0.00D+00 EMaxC= 1.00D-01 BMatC= 2.27D-09 BMatP= 5.76D-09
 IDIUse=1 WtCom= 1.00D+00 WtEn= 0.00D+00
 Coeff-Com: -0.596D-04-0.917D-04 0.972D-03-0.145D-02-0.142D-04 0.158D-02
 Coeff-Com: -0.132D-02 0.433D-03-0.501D-03 0.171D-02-0.607D-02 0.273D-02
 Coeff-Com:  0.220D-02-0.656D-02 0.230D-01-0.211D-01 0.511D-01-0.414D-01
 Coeff-Com: -0.575D+00 0.157D+01
 Coeff:     -0.596D-04-0.917D-04 0.972D-03-0.145D-02-0.142D-04 0.158D-02
 Coeff:     -0.132D-02 0.433D-03-0.501D-03 0.171D-02-0.607D-02 0.273D-02
 Coeff:      0.220D-02-0.656D-02 0.230D-01-0.211D-01 0.511D-01-0.414D-01
 Coeff:     -0.575D+00 0.157D+01
 Gap=     0.141 Goal=   None    Shift=    0.000
 RMSDP=6.63D-06 MaxDP=1.30D-04 DE=-1.33D-07 OVMax= 2.44D-04

 Cycle  23  Pass 1  IDiag  3:
 E= 0.991444961611819     Delta-E=       -0.000000049598 Rises=F Damp=F
 DIIS: error= 4.26D-06 at cycle  23 NSaved=  20.
 NSaved=20 IEnMin=20 EnMin= 0.991444961611819     IErMin=20 ErrMin= 4.26D-06
 ErrMax= 4.26D-06  0.00D+00 EMaxC= 1.00D-01 BMatC= 9.57D-10 BMatP= 2.27D-09
 IDIUse=1 WtCom= 1.00D+00 WtEn= 0.00D+00
 Coeff-Com:  0.393D-04-0.340D-03 0.654D-03-0.786D-03 0.703D-03-0.367D-03
 Coeff-Com: -0.151D-03 0.845D-03-0.827D-03 0.222D-02-0.161D-02-0.282D-02
 Coeff-Com:  0.314D-02-0.259D-02 0.564D-02-0.606D-02 0.100D+00-0.174D+00
 Coeff-Com: -0.511D+00 0.159D+01
 Coeff:      0.393D-04-0.340D-03 0.654D-03-0.786D-03 0.703D-03-0.367D-03
 Coeff:     -0.151D-03 0.845D-03-0.827D-03 0.222D-02-0.161D-02-0.282D-02
 Coeff:      0.314D-02-0.259D-02 0.564D-02-0.606D-02 0.100D+00-0.174D+00
 Coeff:     -0.511D+00 0.159D+01
 Gap=     0.141 Goal=   None    Shift=    0.000
 RMSDP=4.72D-06 MaxDP=8.78D-05 DE=-4.96D-08 OVMax= 1.64D-04

 Cycle  24  Pass 1  IDiag  3:
 E= 0.991444938600921     Delta-E=       -0.000000023011 Rises=F Damp=F
 DIIS: error= 2.82D-06 at cycle  24 NSaved=  20.
 NSaved=20 IEnMin=20 EnMin= 0.991444938600921     IErMin=20 ErrMin= 2.82D-06
 ErrMax= 2.82D-06  0.00D+00 EMaxC= 1.00D-01 BMatC= 4.07D-10 BMatP= 9.57D-10
 IDIUse=1 WtCom= 1.00D+00 WtEn= 0.00D+00
 Coeff-Com:  0.132D-03-0.589D-03 0.699D-03-0.106D-03-0.700D-03 0.446D-03
 Coeff-Com:  0.259D-03-0.231D-04-0.112D-02 0.957D-03 0.277D-03 0.597D-04
 Coeff-Com: -0.898D-03-0.285D-02 0.213D-02 0.388D-04 0.953D-01-0.165D+00
 Coeff-Com: -0.613D+00 0.168D+01
 Coeff:      0.132D-03-0.589D-03 0.699D-03-0.106D-03-0.700D-03 0.446D-03
 Coeff:      0.259D-03-0.231D-04-0.112D-02 0.957D-03 0.277D-03 0.597D-04
 Coeff:     -0.898D-03-0.285D-02 0.213D-02 0.388D-04 0.953D-01-0.165D+00
 Coeff:     -0.613D+00 0.168D+01
 Gap=     0.141 Goal=   None    Shift=    0.000
 RMSDP=3.32D-06 MaxDP=6.09D-05 DE=-2.30D-08 OVMax= 1.15D-04

 Cycle  25  Pass 1  IDiag  3:
 E= 0.991444927614452     Delta-E=       -0.000000010986 Rises=F Damp=F
 DIIS: error= 1.65D-06 at cycle  25 NSaved=  20.
 NSaved=20 IEnMin=20 EnMin= 0.991444927614452     IErMin=20 ErrMin= 1.65D-06
 ErrMax= 1.65D-06  0.00D+00 EMaxC= 1.00D-01 BMatC= 1.68D-10 BMatP= 4.07D-10
 IDIUse=1 WtCom= 1.00D+00 WtEn= 0.00D+00
 Coeff-Com:  0.584D-04-0.247D-03 0.378D-03-0.294D-03 0.166D-03 0.357D-04
 Coeff-Com: -0.308D-03 0.114D-02-0.663D-03-0.952D-03 0.148D-02-0.200D-02
 Coeff-Com:  0.487D-03-0.117D-01 0.227D-01-0.119D-01 0.108D+00-0.251D+00
 Coeff-Com: -0.470D+00 0.161D+01
 Coeff:      0.584D-04-0.247D-03 0.378D-03-0.294D-03 0.166D-03 0.357D-04
 Coeff:     -0.308D-03 0.114D-02-0.663D-03-0.952D-03 0.148D-02-0.200D-02
 Coeff:      0.487D-03-0.117D-01 0.227D-01-0.119D-01 0.108D+00-0.251D+00
 Coeff:     -0.470D+00 0.161D+01
 Gap=     0.141 Goal=   None    Shift=    0.000
 RMSDP=2.34D-06 MaxDP=4.74D-05 DE=-1.10D-08 OVMax= 9.17D-05

 Cycle  26  Pass 1  IDiag  3:
 E= 0.991444923276731     Delta-E=       -0.000000004338 Rises=F Damp=F
 DIIS: error= 8.22D-07 at cycle  26 NSaved=  20.
 NSaved=20 IEnMin=20 EnMin= 0.991444923276731     IErMin=20 ErrMin= 8.22D-07
 ErrMax= 8.22D-07  0.00D+00 EMaxC= 1.00D-01 BMatC= 6.35D-11 BMatP= 1.68D-10
 IDIUse=1 WtCom= 1.00D+00 WtEn= 0.00D+00
 Coeff-Com:  0.726D-05 0.213D-04-0.133D-03-0.374D-04 0.116D-03 0.500D-04
 Coeff-Com: -0.119D-03 0.186D-03 0.607D-04 0.128D-03-0.942D-03 0.148D-02
 Coeff-Com: -0.346D-02-0.147D-01 0.382D-01-0.235D-01 0.727D-01-0.163D+00
 Coeff-Com: -0.412D+00 0.151D+01
 Coeff:      0.726D-05 0.213D-04-0.133D-03-0.374D-04 0.116D-03 0.500D-04
 Coeff:     -0.119D-03 0.186D-03 0.607D-04 0.128D-03-0.942D-03 0.148D-02
 Coeff:     -0.346D-02-0.147D-01 0.382D-01-0.235D-01 0.727D-01-0.163D+00
 Coeff:     -0.412D+00 0.151D+01
 Gap=     0.141 Goal=   None    Shift=    0.000
 RMSDP=1.38D-06 MaxDP=2.75D-05 DE=-4.34D-09 OVMax= 5.55D-05

 Cycle  27  Pass 1  IDiag  3:
 E= 0.991444921905099     Delta-E=       -0.000000001372 Rises=F Damp=F
 DIIS: error= 4.34D-07 at cycle  27 NSaved=  20.
 NSaved=20 IEnMin=20 EnMin= 0.991444921905099     IErMin=20 ErrMin= 4.34D-07
 ErrMax= 4.34D-07  0.00D+00 EMaxC= 1.00D-01 BMatC= 2.06D-11 BMatP= 6.35D-11
 IDIUse=1 WtCom= 1.00D+00 WtEn= 0.00D+00
 Coeff-Com:  0.435D-04-0.367D-04-0.355D-04-0.527D-04 0.301D-04 0.182D-03
 Coeff-Com: -0.108D-03-0.142D-04-0.153D-04-0.486D-03-0.196D-03-0.687D-03
 Coeff-Com:  0.328D-02-0.113D-01 0.193D-01-0.395D-02 0.562D-01-0.190D+00
 Coeff-Com: -0.269D+00 0.140D+01
 Coeff:      0.435D-04-0.367D-04-0.355D-04-0.527D-04 0.301D-04 0.182D-03
 Coeff:     -0.108D-03-0.142D-04-0.153D-04-0.486D-03-0.196D-03-0.687D-03
 Coeff:      0.328D-02-0.113D-01 0.193D-01-0.395D-02 0.562D-01-0.190D+00
 Coeff:     -0.269D+00 0.140D+01
 Gap=     0.141 Goal=   None    Shift=    0.000
 RMSDP=7.14D-07 MaxDP=1.53D-05 DE=-1.37D-09 OVMax= 3.27D-05

 Cycle  28  Pass 1  IDiag  3:
 E= 0.991444921527886     Delta-E=       -0.000000000377 Rises=F Damp=F
 DIIS: error= 1.99D-07 at cycle  28 NSaved=  20.
 NSaved=20 IEnMin=20 EnMin= 0.991444921527886     IErMin=20 ErrMin= 1.99D-07
 ErrMax= 1.99D-07  0.00D+00 EMaxC= 1.00D-01 BMatC= 6.38D-12 BMatP= 2.06D-11
 IDIUse=1 WtCom= 1.00D+00 WtEn= 0.00D+00
 Coeff-Com:  0.850D-06-0.912D-05 0.619D-04-0.809D-04-0.115D-04 0.646D-04
 Coeff-Com:  0.259D-04-0.447D-04 0.723D-04-0.416D-03 0.557D-03-0.124D-02
 Coeff-Com:  0.778D-03-0.204D-02 0.656D-02 0.117D-01 0.322D-01-0.166D+00
 Coeff-Com: -0.262D+00 0.138D+01
 Coeff:      0.850D-06-0.912D-05 0.619D-04-0.809D-04-0.115D-04 0.646D-04
 Coeff:      0.259D-04-0.447D-04 0.723D-04-0.416D-03 0.557D-03-0.124D-02
 Coeff:      0.778D-03-0.204D-02 0.656D-02 0.117D-01 0.322D-01-0.166D+00
 Coeff:     -0.262D+00 0.138D+01
 Gap=     0.141 Goal=   None    Shift=    0.000
 RMSDP=3.51D-07 MaxDP=6.75D-06 DE=-3.77D-10 OVMax= 1.53D-05

 Cycle  29  Pass 1  IDiag  3:
 E= 0.991444921422726     Delta-E=       -0.000000000105 Rises=F Damp=F
 DIIS: error= 9.89D-08 at cycle  29 NSaved=  20.
 NSaved=20 IEnMin=20 EnMin= 0.991444921422726     IErMin=20 ErrMin= 9.89D-08
 ErrMax= 9.89D-08  0.00D+00 EMaxC= 1.00D-01 BMatC= 1.72D-12 BMatP= 6.38D-12
 IDIUse=1 WtCom= 1.00D+00 WtEn= 0.00D+00
 Coeff-Com: -0.171D-04 0.194D-04-0.191D-05 0.296D-04-0.476D-04 0.556D-05
 Coeff-Com: -0.226D-05 0.130D-03-0.309D-03 0.510D-03-0.817D-03 0.867D-03
 Coeff-Com: -0.510D-03-0.435D-02 0.736D-02 0.167D-01 0.133D-02-0.106D+00
 Coeff-Com: -0.275D+00 0.136D+01
 Coeff:     -0.171D-04 0.194D-04-0.191D-05 0.296D-04-0.476D-04 0.556D-05
 Coeff:     -0.226D-05 0.130D-03-0.309D-03 0.510D-03-0.817D-03 0.867D-03
 Coeff:     -0.510D-03-0.435D-02 0.736D-02 0.167D-01 0.133D-02-0.106D+00
 Coeff:     -0.275D+00 0.136D+01
 Gap=     0.141 Goal=   None    Shift=    0.000
 RMSDP=1.67D-07 MaxDP=2.77D-06 DE=-1.05D-10 OVMax= 6.72D-06

 Cycle  30  Pass 1  IDiag  3:
 E= 0.991444921393850     Delta-E=       -0.000000000029 Rises=F Damp=F
 DIIS: error= 6.08D-08 at cycle  30 NSaved=  20.
 NSaved=20 IEnMin=20 EnMin= 0.991444921393850     IErMin=20 ErrMin= 6.08D-08
 ErrMax= 6.08D-08  0.00D+00 EMaxC= 1.00D-01 BMatC= 4.92D-13 BMatP= 1.72D-12
 IDIUse=1 WtCom= 1.00D+00 WtEn= 0.00D+00
 Coeff-Com:  0.195D-04-0.239D-04 0.449D-04-0.540D-04-0.352D-04 0.704D-04
 Coeff-Com: -0.274D-04 0.532D-04-0.911D-04 0.558D-03-0.587D-03 0.194D-03
 Coeff-Com: -0.128D-02-0.449D-03-0.589D-03 0.161D-01 0.999D-02-0.662D-01
 Coeff-Com: -0.437D+00 0.148D+01
 Coeff:      0.195D-04-0.239D-04 0.449D-04-0.540D-04-0.352D-04 0.704D-04
 Coeff:     -0.274D-04 0.532D-04-0.911D-04 0.558D-03-0.587D-03 0.194D-03
 Coeff:     -0.128D-02-0.449D-03-0.589D-03 0.161D-01 0.999D-02-0.662D-01
 Coeff:     -0.437D+00 0.148D+01
 Gap=     0.141 Goal=   None    Shift=    0.000
 RMSDP=9.33D-08 MaxDP=1.35D-06 DE=-2.89D-11 OVMax= 3.35D-06

 Cycle  31  Pass 1  IDiag  3:
 E= 0.991444921382708     Delta-E=       -0.000000000011 Rises=F Damp=F
 DIIS: error= 3.45D-08 at cycle  31 NSaved=  20.
 NSaved=20 IEnMin=20 EnMin= 0.991444921382708     IErMin=20 ErrMin= 3.45D-08
 ErrMax= 3.45D-08  0.00D+00 EMaxC= 1.00D-01 BMatC= 1.51D-13 BMatP= 4.92D-13
 IDIUse=1 WtCom= 1.00D+00 WtEn= 0.00D+00
 Coeff-Com: -0.821D-05 0.406D-05 0.135D-04 0.145D-04-0.454D-06-0.321D-05
 Coeff-Com: -0.409D-04 0.640D-04-0.247D-03 0.554D-03-0.737D-03 0.190D-02
 Coeff-Com: -0.341D-02 0.154D-02-0.223D-02 0.891D-02 0.153D-01-0.144D-01
 Coeff-Com: -0.561D+00 0.155D+01
 Coeff:     -0.821D-05 0.406D-05 0.135D-04 0.145D-04-0.454D-06-0.321D-05
 Coeff:     -0.409D-04 0.640D-04-0.247D-03 0.554D-03-0.737D-03 0.190D-02
 Coeff:     -0.341D-02 0.154D-02-0.223D-02 0.891D-02 0.153D-01-0.144D-01
 Coeff:     -0.561D+00 0.155D+01
 Gap=     0.141 Goal=   None    Shift=    0.000
 RMSDP=5.68D-08 MaxDP=6.81D-07 DE=-1.11D-11 OVMax= 2.01D-06

 Cycle  32  Pass 1  IDiag  3:
 E= 0.991444921381458     Delta-E=       -0.000000000001 Rises=F Damp=F
 DIIS: error= 1.93D-08 at cycle  32 NSaved=  20.
 NSaved=20 IEnMin=20 EnMin= 0.991444921381458     IErMin=20 ErrMin= 1.93D-08
 ErrMax= 1.93D-08  0.00D+00 EMaxC= 1.00D-01 BMatC= 4.52D-14 BMatP= 1.51D-13
 IDIUse=1 WtCom= 1.00D+00 WtEn= 0.00D+00
 Coeff-Com:  0.199D-06-0.729D-06-0.110D-04 0.169D-04-0.147D-04 0.361D-04
 Coeff-Com: -0.105D-03 0.219D-03-0.523D-03 0.717D-03-0.761D-04 0.545D-03
 Coeff-Com: -0.277D-02 0.782D-03-0.420D-02 0.111D-01 0.168D-01 0.375D-02
 Coeff-Com: -0.626D+00 0.160D+01
 Coeff:      0.199D-06-0.729D-06-0.110D-04 0.169D-04-0.147D-04 0.361D-04
 Coeff:     -0.105D-03 0.219D-03-0.523D-03 0.717D-03-0.761D-04 0.545D-03
 Coeff:     -0.277D-02 0.782D-03-0.420D-02 0.111D-01 0.168D-01 0.375D-02
 Coeff:     -0.626D+00 0.160D+01
 Gap=     0.141 Goal=   None    Shift=    0.000
 RMSDP=3.50D-08 MaxDP=5.21D-07 DE=-1.25D-12 OVMax= 1.28D-06

 Cycle  33  Pass 1  IDiag  1:
 E= 0.991444921379070     Delta-E=       -0.000000000002 Rises=F Damp=F
 DIIS: error= 1.16D-08 at cycle  33 NSaved=  20.
 NSaved=20 IEnMin=20 EnMin= 0.991444921379070     IErMin=20 ErrMin= 1.16D-08
 ErrMax= 1.16D-08  0.00D+00 EMaxC= 1.00D-01 BMatC= 1.41D-14 BMatP= 4.52D-14
 IDIUse=1 WtCom= 1.00D+00 WtEn= 0.00D+00
 Large coefficients: NSaved= 20 BigCof=    0.00 CofMax=   10.00 Det=-3.65D-15
 Inversion failed.  Reducing to 19 matrices.
 Large coefficients: NSaved= 19 BigCof=    0.00 CofMax=   10.00 Det=-3.65D-15
 Inversion failed.  Reducing to 18 matrices.
 Large coefficients: NSaved= 18 BigCof=    0.00 CofMax=   10.00 Det=-3.66D-15
 Inversion failed.  Reducing to 17 matrices.
 Large coefficients: NSaved= 17 BigCof=    0.00 CofMax=   10.00 Det=-3.67D-15
 Inversion failed.  Reducing to 16 matrices.
 Large coefficients: NSaved= 16 BigCof=    0.00 CofMax=   10.00 Det=-3.67D-15
 Inversion failed.  Reducing to 15 matrices.
 Coeff-Com: -0.291D-04 0.326D-04-0.725D-04 0.204D-03-0.189D-03 0.462D-03
 Coeff-Com:  0.829D-04-0.605D-03-0.118D-02-0.212D-02 0.305D-02 0.372D-01
 Coeff-Com: -0.297D-01-0.610D+00 0.160D+01
 Coeff:     -0.291D-04 0.326D-04-0.725D-04 0.204D-03-0.189D-03 0.462D-03
 Coeff:      0.829D-04-0.605D-03-0.118D-02-0.212D-02 0.305D-02 0.372D-01
 Coeff:     -0.297D-01-0.610D+00 0.160D+01
 RMSDP=2.21D-08 MaxDP=3.18D-07 DE=-2.39D-12 OVMax= 1.28D-06

 Cycle  34  Pass 1  IDiag  3:
 E= 0.991444921377706     Delta-E=       -0.000000000001 Rises=F Damp=F
 DIIS: error= 5.81D-09 at cycle  34 NSaved=  16.
 NSaved=16 IEnMin=16 EnMin= 0.991444921377706     IErMin=16 ErrMin= 5.81D-09
 ErrMax= 5.81D-09  0.00D+00 EMaxC= 1.00D-01 BMatC= 2.74D-15 BMatP= 1.41D-14
 IDIUse=1 WtCom= 1.00D+00 WtEn= 0.00D+00
 Large coefficients: NSaved= 16 BigCof=    0.00 CofMax=   10.00 Det=-1.40D-15
 Inversion failed.  Reducing to 15 matrices.
 Coeff-Com:  0.183D-04-0.334D-04-0.309D-04-0.105D-03 0.209D-03-0.351D-03
 Coeff-Com:  0.508D-03-0.114D-02 0.875D-03 0.175D-02-0.109D-01 0.681D-01
 Coeff-Com: -0.158D-01-0.561D+00 0.152D+01
 Coeff:      0.183D-04-0.334D-04-0.309D-04-0.105D-03 0.209D-03-0.351D-03
 Coeff:      0.508D-03-0.114D-02 0.875D-03 0.175D-02-0.109D-01 0.681D-01
 Coeff:     -0.158D-01-0.561D+00 0.152D+01
 Gap=     0.130 Goal=   None    Shift=    0.000
 RMSDP=9.78D-09 MaxDP=1.64D-07 DE=-1.36D-12 OVMax= 3.91D-07

 Cycle  35  Pass 2  IDiag  1:
 SCF Done:  E(RPM6) =  0.991444921378     A.U. after   35 cycles
            NFock= 34  Conv=0.98D-08     -V/T= 1.0043
 KE=-2.300176867491D+02 PE=-1.306900537055D+03 EE= 7.250842856284D+02
 Leave Link  502 at Wed Jan 12 18:27:45 2022, MaxMem=   402653184 cpu:             210.0 elap:              29.7
 (Enter /work/01114/jfonner/frontera/gaussian/16rC.01/g16/l601.exe)
 Copying SCF densities to generalized density rwf, IOpCl= 0 IROHF=0.

 **********************************************************************

            Population analysis using the SCF Density.

 **********************************************************************

 Alpha  occ. eigenvalues --   -1.38614  -1.37375  -1.33484  -1.30630  -1.29032
 Alpha  occ. eigenvalues --   -1.27336  -1.26777  -1.24579  -1.20494  -1.19523
 Alpha  occ. eigenvalues --   -1.15576  -1.13795  -1.10864  -1.06731  -1.03462
 Alpha  occ. eigenvalues --   -0.94998  -0.92775  -0.91220  -0.86077  -0.82629
 Alpha  occ. eigenvalues --   -0.81881  -0.78046  -0.77220  -0.76418  -0.75531
 Alpha  occ. eigenvalues --   -0.74659  -0.74045  -0.73508  -0.72900  -0.72087
 Alpha  occ. eigenvalues --   -0.70340  -0.69608  -0.68979  -0.67152  -0.67029
 Alpha  occ. eigenvalues --   -0.66518  -0.64082  -0.63056  -0.61392  -0.59946
 Alpha  occ. eigenvalues --   -0.59057  -0.58625  -0.56788  -0.55708  -0.54848
 Alpha  occ. eigenvalues --   -0.53617  -0.52953  -0.52085  -0.51304  -0.48960
 Alpha  occ. eigenvalues --   -0.46894  -0.46279
 Alpha virt. eigenvalues --   -0.33280  -0.28923  -0.27430  -0.22870  -0.22638
 Alpha virt. eigenvalues --   -0.21779  -0.21646  -0.15343  -0.14571  -0.13561
 Alpha virt. eigenvalues --   -0.12838  -0.12455  -0.11862  -0.10982  -0.09488
 Alpha virt. eigenvalues --   -0.08974  -0.08113  -0.05599  -0.05477  -0.04249
 Alpha virt. eigenvalues --   -0.03987  -0.02387  -0.01491  -0.00630  -0.00101
 Alpha virt. eigenvalues --    0.00263   0.00371   0.01491   0.02319   0.02494
 Alpha virt. eigenvalues --    0.02513   0.02987   0.03618   0.05442   0.06696
 Alpha virt. eigenvalues --    0.08730   0.10846
          Condensed to atoms (all electrons):
               1          2          3          4          5          6
     1  C    3.529146   0.000000   0.000000   0.000000   0.000000   0.000000
     2  O    0.000000   6.488919   0.000000   0.000000   0.000000   0.000000
     3  N    0.000000   0.000000   5.421987   0.000000   0.000000   0.000000
     4  C    0.000000   0.000000   0.000000   3.760803   0.000000   0.000000
     5  C    0.000000   0.000000   0.000000   0.000000   3.506409   0.000000
     6  O    0.000000   0.000000   0.000000   0.000000   0.000000   6.333313
     7  N    0.000000   0.000000   0.000000   0.000000   0.000000   0.000000
     8  C    0.000000   0.000000   0.000000   0.000000   0.000000   0.000000
     9  C    0.000000   0.000000   0.000000   0.000000   0.000000   0.000000
    10  O    0.000000   0.000000   0.000000   0.000000   0.000000   0.000000
    11  C    0.000000   0.000000   0.000000   0.000000   0.000000   0.000000
    12  O    0.000000   0.000000   0.000000   0.000000   0.000000   0.000000
    13  N    0.000000   0.000000   0.000000   0.000000   0.000000   0.000000
    14  C    0.000000   0.000000   0.000000   0.000000   0.000000   0.000000
    15  C    0.000000   0.000000   0.000000   0.000000   0.000000   0.000000
    16  O    0.000000   0.000000   0.000000   0.000000   0.000000   0.000000
    17  N    0.000000   0.000000   0.000000   0.000000   0.000000   0.000000
    18  C    0.000000   0.000000   0.000000   0.000000   0.000000   0.000000
    19  C    0.000000   0.000000   0.000000   0.000000   0.000000   0.000000
    20  O    0.000000   0.000000   0.000000   0.000000   0.000000   0.000000
    21  C    0.000000   0.000000   0.000000   0.000000   0.000000   0.000000
    22  H    0.000000   0.000000   0.000000   0.000000   0.000000   0.000000
    23  H    0.000000   0.000000   0.000000   0.000000   0.000000   0.000000
    24  H    0.000000   0.000000   0.000000   0.000000   0.000000   0.000000
    25  H    0.000000   0.000000   0.000000   0.000000   0.000000   0.000000
    26  H    0.000000   0.000000   0.000000   0.000000   0.000000   0.000000
               7          8          9         10         11         12
     1  C    0.000000   0.000000   0.000000   0.000000   0.000000   0.000000
     2  O    0.000000   0.000000   0.000000   0.000000   0.000000   0.000000
     3  N    0.000000   0.000000   0.000000   0.000000   0.000000   0.000000
     4  C    0.000000   0.000000   0.000000   0.000000   0.000000   0.000000
     5  C    0.000000   0.000000   0.000000   0.000000   0.000000   0.000000
     6  O    0.000000   0.000000   0.000000   0.000000   0.000000   0.000000
     7  N    5.335541   0.000000   0.000000   0.000000   0.000000   0.000000
     8  C    0.000000   3.799361   0.000000   0.000000   0.000000   0.000000
     9  C    0.000000   0.000000   3.764000   0.000000   0.000000   0.000000
    10  O    0.000000   0.000000   0.000000   6.281178   0.000000   0.000000
    11  C    0.000000   0.000000   0.000000   0.000000   3.546020   0.000000
    12  O    0.000000   0.000000   0.000000   0.000000   0.000000   6.464314
    13  N    0.000000   0.000000   0.000000   0.000000   0.000000   0.000000
    14  C    0.000000   0.000000   0.000000   0.000000   0.000000   0.000000
    15  C    0.000000   0.000000   0.000000   0.000000   0.000000   0.000000
    16  O    0.000000   0.000000   0.000000   0.000000   0.000000   0.000000
    17  N    0.000000   0.000000   0.000000   0.000000   0.000000   0.000000
    18  C    0.000000   0.000000   0.000000   0.000000   0.000000   0.000000
    19  C    0.000000   0.000000   0.000000   0.000000   0.000000   0.000000
    20  O    0.000000   0.000000   0.000000   0.000000   0.000000   0.000000
    21  C    0.000000   0.000000   0.000000   0.000000   0.000000   0.000000
    22  H    0.000000   0.000000   0.000000   0.000000   0.000000   0.000000
    23  H    0.000000   0.000000   0.000000   0.000000   0.000000   0.000000
    24  H    0.000000   0.000000   0.000000   0.000000   0.000000   0.000000
    25  H    0.000000   0.000000   0.000000   0.000000   0.000000   0.000000
    26  H    0.000000   0.000000   0.000000   0.000000   0.000000   0.000000
              13         14         15         16         17         18
     1  C    0.000000   0.000000   0.000000   0.000000   0.000000   0.000000
     2  O    0.000000   0.000000   0.000000   0.000000   0.000000   0.000000
     3  N    0.000000   0.000000   0.000000   0.000000   0.000000   0.000000
     4  C    0.000000   0.000000   0.000000   0.000000   0.000000   0.000000
     5  C    0.000000   0.000000   0.000000   0.000000   0.000000   0.000000
     6  O    0.000000   0.000000   0.000000   0.000000   0.000000   0.000000
     7  N    0.000000   0.000000   0.000000   0.000000   0.000000   0.000000
     8  C    0.000000   0.000000   0.000000   0.000000   0.000000   0.000000
     9  C    0.000000   0.000000   0.000000   0.000000   0.000000   0.000000
    10  O    0.000000   0.000000   0.000000   0.000000   0.000000   0.000000
    11  C    0.000000   0.000000   0.000000   0.000000   0.000000   0.000000
    12  O    0.000000   0.000000   0.000000   0.000000   0.000000   0.000000
    13  N    5.481040   0.000000   0.000000   0.000000   0.000000   0.000000
    14  C    0.000000   3.638559   0.000000   0.000000   0.000000   0.000000
    15  C    0.000000   0.000000   3.533628   0.000000   0.000000   0.000000
    16  O    0.000000   0.000000   0.000000   6.452594   0.000000   0.000000
    17  N    0.000000   0.000000   0.000000   0.000000   5.507950   0.000000
    18  C    0.000000   0.000000   0.000000   0.000000   0.000000   3.694985
    19  C    0.000000   0.000000   0.000000   0.000000   0.000000   0.000000
    20  O    0.000000   0.000000   0.000000   0.000000   0.000000   0.000000
    21  C    0.000000   0.000000   0.000000   0.000000   0.000000   0.000000
    22  H    0.000000   0.000000   0.000000   0.000000   0.000000   0.000000
    23  H    0.000000   0.000000   0.000000   0.000000   0.000000   0.000000
    24  H    0.000000   0.000000   0.000000   0.000000   0.000000   0.000000
    25  H    0.000000   0.000000   0.000000   0.000000   0.000000   0.000000
    26  H    0.000000   0.000000   0.000000   0.000000   0.000000   0.000000
              19         20         21         22         23         24
     1  C    0.000000   0.000000   0.000000   0.000000   0.000000   0.000000
     2  O    0.000000   0.000000   0.000000   0.000000   0.000000   0.000000
     3  N    0.000000   0.000000   0.000000   0.000000   0.000000   0.000000
     4  C    0.000000   0.000000   0.000000   0.000000   0.000000   0.000000
     5  C    0.000000   0.000000   0.000000   0.000000   0.000000   0.000000
     6  O    0.000000   0.000000   0.000000   0.000000   0.000000   0.000000
     7  N    0.000000   0.000000   0.000000   0.000000   0.000000   0.000000
     8  C    0.000000   0.000000   0.000000   0.000000   0.000000   0.000000
     9  C    0.000000   0.000000   0.000000   0.000000   0.000000   0.000000
    10  O    0.000000   0.000000   0.000000   0.000000   0.000000   0.000000
    11  C    0.000000   0.000000   0.000000   0.000000   0.000000   0.000000
    12  O    0.000000   0.000000   0.000000   0.000000   0.000000   0.000000
    13  N    0.000000   0.000000   0.000000   0.000000   0.000000   0.000000
    14  C    0.000000   0.000000   0.000000   0.000000   0.000000   0.000000
    15  C    0.000000   0.000000   0.000000   0.000000   0.000000   0.000000
    16  O    0.000000   0.000000   0.000000   0.000000   0.000000   0.000000
    17  N    0.000000   0.000000   0.000000   0.000000   0.000000   0.000000
    18  C    0.000000   0.000000   0.000000   0.000000   0.000000   0.000000
    19  C    4.113626   0.000000   0.000000   0.000000   0.000000   0.000000
    20  O    0.000000   6.105451   0.000000   0.000000   0.000000   0.000000
    21  C    0.000000   0.000000   3.046511   0.000000   0.000000   0.000000
    22  H    0.000000   0.000000   0.000000   0.851337   0.000000   0.000000
    23  H    0.000000   0.000000   0.000000   0.000000   0.826130   0.000000
    24  H    0.000000   0.000000   0.000000   0.000000   0.000000   0.824425
    25  H    0.000000   0.000000   0.000000   0.000000   0.000000   0.000000
    26  H    0.000000   0.000000   0.000000   0.000000   0.000000   0.000000
              25         26
     1  C    0.000000   0.000000
     2  O    0.000000   0.000000
     3  N    0.000000   0.000000
     4  C    0.000000   0.000000
     5  C    0.000000   0.000000
     6  O    0.000000   0.000000
     7  N    0.000000   0.000000
     8  C    0.000000   0.000000
     9  C    0.000000   0.000000
    10  O    0.000000   0.000000
    11  C    0.000000   0.000000
    12  O    0.000000   0.000000
    13  N    0.000000   0.000000
    14  C    0.000000   0.000000
    15  C    0.000000   0.000000
    16  O    0.000000   0.000000
    17  N    0.000000   0.000000
    18  C    0.000000   0.000000
    19  C    0.000000   0.000000
    20  O    0.000000   0.000000
    21  C    0.000000   0.000000
    22  H    0.000000   0.000000
    23  H    0.000000   0.000000
    24  H    0.000000   0.000000
    25  H    0.843632   0.000000
    26  H    0.000000   0.849139
 Mulliken charges:
               1
     1  C    0.470854
     2  O   -0.488919
     3  N   -0.421987
     4  C    0.239197
     5  C    0.493591
     6  O   -0.333313
     7  N   -0.335541
     8  C    0.200639
     9  C    0.236000
    10  O   -0.281178
    11  C    0.453980
    12  O   -0.464314
    13  N   -0.481040
    14  C    0.361441
    15  C    0.466372
    16  O   -0.452594
    17  N   -0.507950
    18  C    0.305015
    19  C   -0.113626
    20  O   -0.105451
    21  C    0.953489
    22  H    0.148663
    23  H    0.173870
    24  H    0.175575
    25  H    0.156368
    26  H    0.150861
 Sum of Mulliken charges =   1.00000
 Mulliken charges with hydrogens summed into heavy atoms:
               1
     1  C    0.619517
     2  O   -0.488919
     3  N   -0.421987
     4  C    0.239197
     5  C    0.493591
     6  O   -0.333313
     7  N   -0.335541
     8  C    0.200639
     9  C    0.409870
    10  O   -0.281178
    11  C    0.453980
    12  O   -0.464314
    13  N   -0.481040
    14  C    0.537016
    15  C    0.466372
    16  O   -0.452594
    17  N   -0.507950
    18  C    0.612244
    19  C   -0.113626
    20  O   -0.105451
    21  C    0.953489
 Charge=              1.0000 electrons
 Dipole moment (field-independent basis, Debye):
    X=             10.1511    Y=              3.3080    Z=            112.4468  Tot=            112.9525
 N-N= 8.128253830967D+02 E-N=-1.306900537004D+03  KE=-2.300176867491D+02
 Leave Link  601 at Wed Jan 12 18:27:45 2022, MaxMem=   402653184 cpu:               2.0 elap:               0.4
 (Enter /work/01114/jfonner/frontera/gaussian/16rC.01/g16/l607.exe)
 ******************************Gaussian NBO Version 3.1******************************
             N A T U R A L   A T O M I C   O R B I T A L   A N D
          N A T U R A L   B O N D   O R B I T A L   A N A L Y S I S
 ******************************Gaussian NBO Version 3.1******************************
       /RESON  / : Allow strongly delocalized NBO set

 Analyzing the SCF density

 Job title: Atom number=26                                                  

 Storage needed:     25906 in NPA ( 402649596 available)
 GSVD:  LWork=       -8633 too small for GESVD, short by       40940 words or       40940 for optimal perf.


 NATURAL POPULATIONS:  Natural atomic orbital occupancies 
                                                          
   NAO  Atom  No  lang   Type(AO)    Occupancy      Energy
 ----------------------------------------------------------
     1    C    1  S      Val( 2S)     1.08961      -0.57068
     2    C    1  px     Val( 2p)     0.74276      -0.26730
     3    C    1  py     Val( 2p)     0.81428      -0.32839
     4    C    1  pz     Val( 2p)     0.88250      -0.30529
 
     5    O    2  S      Val( 2S)     1.86270      -0.96132
     6    O    2  px     Val( 2p)     1.59984      -0.45642
     7    O    2  py     Val( 2p)     1.25413      -0.45624
     8    O    2  pz     Val( 2p)     1.77226      -0.47531
 
     9    N    3  S      Val( 2S)     1.67339      -0.90250
    10    N    3  px     Val( 2p)     1.52646      -0.44360
    11    N    3  py     Val( 2p)     1.03028      -0.37544
    12    N    3  pz     Val( 2p)     1.19186      -0.42028
 
    13    C    4  S      Val( 2S)     1.28481      -0.64992
    14    C    4  px     Val( 2p)     0.96030      -0.37080
    15    C    4  py     Val( 2p)     0.61247      -0.29371
    16    C    4  pz     Val( 2p)     0.90323      -0.36160
 
    17    C    5  S      Val( 2S)     1.08912      -0.65750
    18    C    5  px     Val( 2p)     0.78859      -0.36383
    19    C    5  py     Val( 2p)     0.81192      -0.41862
    20    C    5  pz     Val( 2p)     0.81678      -0.38862
 
    21    O    6  S      Val( 2S)     1.84286      -1.05868
    22    O    6  px     Val( 2p)     1.56485      -0.53967
    23    O    6  py     Val( 2p)     1.28179      -0.54518
    24    O    6  pz     Val( 2p)     1.64381      -0.54417
 
    25    N    7  S      Val( 2S)     1.66455      -0.95773
    26    N    7  px     Val( 2p)     1.57462      -0.50791
    27    N    7  py     Val( 2p)     0.95482      -0.42655
    28    N    7  pz     Val( 2p)     1.14156      -0.47853
 
    29    C    8  S      Val( 2S)     1.27024      -0.70630
    30    C    8  px     Val( 2p)     0.84275      -0.41745
    31    C    8  py     Val( 2p)     0.72047      -0.37183
    32    C    8  pz     Val( 2p)     0.96591      -0.43720
 
    33    C    9  S      Val( 2S)     1.23071      -0.62442
    34    C    9  px     Val( 2p)     0.88640      -0.33901
    35    C    9  py     Val( 2p)     0.70414      -0.29622
    36    C    9  pz     Val( 2p)     0.94274      -0.34413
 
    37    O   10  S      Val( 2S)     1.94511      -1.02599
    38    O   10  px     Val( 2p)     1.79056      -0.48202
    39    O   10  py     Val( 2p)     1.18277      -0.42132
    40    O   10  pz     Val( 2p)     1.36274      -0.44977
 
    41    C   11  S      Val( 2S)     1.05645      -0.66071
    42    C   11  px     Val( 2p)     0.83878      -0.39762
    43    C   11  py     Val( 2p)     0.81428      -0.42955
    44    C   11  pz     Val( 2p)     0.83651      -0.39972
 
    45    O   12  S      Val( 2S)     1.86393      -1.04402
    46    O   12  px     Val( 2p)     1.66840      -0.54439
    47    O   12  py     Val( 2p)     1.23770      -0.53356
    48    O   12  pz     Val( 2p)     1.69428      -0.54548
 
    49    N   13  S      Val( 2S)     1.66888      -0.96342
    50    N   13  px     Val( 2p)     1.37496      -0.48994
    51    N   13  py     Val( 2p)     1.16424      -0.44898
    52    N   13  pz     Val( 2p)     1.27296      -0.48039
 
    53    C   14  S      Val( 2S)     1.25266      -0.68200
    54    C   14  px     Val( 2p)     1.03291      -0.39790
    55    C   14  py     Val( 2p)     0.42236      -0.29581
    56    C   14  pz     Val( 2p)     0.93063      -0.39487
 
    57    C   15  S      Val( 2S)     1.07822      -0.64403
    58    C   15  px     Val( 2p)     0.78960      -0.35241
    59    C   15  py     Val( 2p)     0.80750      -0.40349
    60    C   15  pz     Val( 2p)     0.85830      -0.39064
 
    61    O   16  S      Val( 2S)     1.86820      -1.03058
    62    O   16  px     Val( 2p)     1.56546      -0.51672
    63    O   16  py     Val( 2p)     1.23798      -0.51556
    64    O   16  pz     Val( 2p)     1.78095      -0.53798
 
    65    N   17  S      Val( 2S)     1.69544      -0.94588
    66    N   17  px     Val( 2p)     1.52293      -0.47279
    67    N   17  py     Val( 2p)     1.16232      -0.43083
    68    N   17  pz     Val( 2p)     1.12726      -0.45435
 
    69    C   18  S      Val( 2S)     1.21985      -0.65613
    70    C   18  px     Val( 2p)     1.05867      -0.37748
    71    C   18  py     Val( 2p)     0.49269      -0.29029
    72    C   18  pz     Val( 2p)     0.92377      -0.37010
 
    73    C   19  S      Val( 2S)     1.25887      -0.74743
    74    C   19  px     Val( 2p)     1.03495      -0.50109
    75    C   19  py     Val( 2p)     0.82823      -0.44708
    76    C   19  pz     Val( 2p)     0.99158      -0.50053
 
    77    O   20  S      Val( 2S)     1.95396      -1.15714
    78    O   20  px     Val( 2p)     1.72555      -0.57972
    79    O   20  py     Val( 2p)     1.16969      -0.52141
    80    O   20  pz     Val( 2p)     1.25625      -0.54431
 
    81    C   21  S      Val( 2S)     1.84730      -0.91674
    82    C   21  px     Val( 2p)     0.22010      -0.32778
    83    C   21  py     Val( 2p)     0.39461      -0.34709
    84    C   21  pz     Val( 2p)     0.58451      -0.38681
 
    85    H   22  S      Val( 1S)     0.85134      -0.26349
 
    86    H   23  S      Val( 1S)     0.82613      -0.30970
 
    87    H   24  S      Val( 1S)     0.82442      -0.34094
 
    88    H   25  S      Val( 1S)     0.84363      -0.33633
 
    89    H   26  S      Val( 1S)     0.84914      -0.33717

 [ 42 electrons found in the effective core potential]


 Summary of Natural Population Analysis:                  
                                                          
                                       Natural Population 
                Natural  -----------------------------------------------
    Atom  No    Charge         Core      Valence    Rydberg      Total
 -----------------------------------------------------------------------
      C    1    0.47085      2.00000     3.52915    0.00000     5.52915
      O    2   -0.48892      2.00000     6.48892    0.00000     8.48892
      N    3   -0.42199      2.00000     5.42199    0.00000     7.42199
      C    4    0.23920      2.00000     3.76080    0.00000     5.76080
      C    5    0.49359      2.00000     3.50641    0.00000     5.50641
      O    6   -0.33331      2.00000     6.33331    0.00000     8.33331
      N    7   -0.33554      2.00000     5.33554    0.00000     7.33554
      C    8    0.20064      2.00000     3.79936    0.00000     5.79936
      C    9    0.23600      2.00000     3.76400    0.00000     5.76400
      O   10   -0.28118      2.00000     6.28118    0.00000     8.28118
      C   11    0.45398      2.00000     3.54602    0.00000     5.54602
      O   12   -0.46431      2.00000     6.46431    0.00000     8.46431
      N   13   -0.48104      2.00000     5.48104    0.00000     7.48104
      C   14    0.36144      2.00000     3.63856    0.00000     5.63856
      C   15    0.46637      2.00000     3.53363    0.00000     5.53363
      O   16   -0.45259      2.00000     6.45259    0.00000     8.45259
      N   17   -0.50795      2.00000     5.50795    0.00000     7.50795
      C   18    0.30502      2.00000     3.69498    0.00000     5.69498
      C   19   -0.11363      2.00000     4.11363    0.00000     6.11363
      O   20   -0.10545      2.00000     6.10545    0.00000     8.10545
      C   21    0.95349      2.00000     3.04651    0.00000     5.04651
      H   22    0.14866      0.00000     0.85134    0.00000     0.85134
      H   23    0.17387      0.00000     0.82613    0.00000     0.82613
      H   24    0.17558      0.00000     0.82442    0.00000     0.82442
      H   25    0.15637      0.00000     0.84363    0.00000     0.84363
      H   26    0.15086      0.00000     0.84914    0.00000     0.84914
 =======================================================================
   * Total *    1.00000     42.00000   104.00000    0.00000   146.00000

                                 Natural Population      
 --------------------------------------------------------
   Effective Core            42.00000
   Valence                  104.00000 (100.0000% of 104)
   Natural Minimal Basis    146.00000 (100.0000% of 146)
   Natural Rydberg Basis      0.00000 (  0.0000% of 146)
 --------------------------------------------------------

    Atom  No          Natural Electron Configuration
 ----------------------------------------------------------------------------
      C    1      [core]2S( 1.09)2p( 2.44)
      O    2      [core]2S( 1.86)2p( 4.63)
      N    3      [core]2S( 1.67)2p( 3.75)
      C    4      [core]2S( 1.28)2p( 2.48)
      C    5      [core]2S( 1.09)2p( 2.42)
      O    6      [core]2S( 1.84)2p( 4.49)
      N    7      [core]2S( 1.66)2p( 3.67)
      C    8      [core]2S( 1.27)2p( 2.53)
      C    9      [core]2S( 1.23)2p( 2.53)
      O   10      [core]2S( 1.95)2p( 4.34)
      C   11      [core]2S( 1.06)2p( 2.49)
      O   12      [core]2S( 1.86)2p( 4.60)
      N   13      [core]2S( 1.67)2p( 3.81)
      C   14      [core]2S( 1.25)2p( 2.39)
      C   15      [core]2S( 1.08)2p( 2.46)
      O   16      [core]2S( 1.87)2p( 4.58)
      N   17      [core]2S( 1.70)2p( 3.81)
      C   18      [core]2S( 1.22)2p( 2.48)
      C   19      [core]2S( 1.26)2p( 2.85)
      O   20      [core]2S( 1.95)2p( 4.15)
      C   21      [core]2S( 1.85)2p( 1.20)
      H   22            1S( 0.85)
      H   23            1S( 0.83)
      H   24            1S( 0.82)
      H   25            1S( 0.84)
      H   26            1S( 0.85)


 NBO analysis skipped by request.
 Leave Link  607 at Wed Jan 12 18:27:50 2022, MaxMem=   402653184 cpu:              35.0 elap:               4.4
 (Enter /work/01114/jfonner/frontera/gaussian/16rC.01/g16/l9999.exe)
 Unable to Open any file for archive entry.
 1\1\GINC-C208-026\SP\RPM6\ZDO\C11H5N4O6(1+)\SA748948\12-Jan-2022\0\\#p
  pm6 pop=npa nosymm\\Atom number=26\\1,1\C,0,3.0059784,0.04697406,14.3
 6112124\O,0,2.95796912,-1.16898864,14.51500264\N,0,3.48095891,0.887009
 77,15.26199298\C,0,4.1630129,0.3919295,16.4418975\C,0,3.42402857,0.964
 93089,17.63092844\O,0,3.13598271,2.10993977,17.61197721\N,0,3.17299957
 ,0.12899197,18.64703208\C,0,2.55897662,0.51606694,19.90310102\C,0,5.68
 799408,0.75007065,16.38907479\O,0,6.26396048,0.12994953,15.23594917\C,
 0,3.3499135,-0.12203481,21.01403922\O,0,3.36601705,-1.33909097,21.1400
 1122\N,0,4.06700083,0.68803319,21.76791684\C,0,4.88803798,0.20507836,2
 2.85094867\C,0,4.35008215,0.76904878,24.17405323\O,0,4.16106345,1.9811
 0697,24.26897759\N,0,4.06508418,-0.11993563,25.15091378\C,0,3.72006767
 ,0.31304032,26.51498032\C,0,1.13794426,-0.02105688,19.98305298\O,0,0.3
 9300157,0.39404483,18.82400672\C,0,0.48602475,0.50104634,21.16698973\H
 ,0,2.70238707,0.5011661,13.44109847\H,0,6.21367799,0.36221629,17.23649
 76\H,0,5.91048224,0.48872838,22.7129255\H,0,4.57407571,0.19194018,27.1
 4815094\H,0,2.86421364,-0.20215034,26.89837627\\Version=ES64L-G16RevC.
 01\HF=0.9914449\RMSD=9.775e-09\Dipole=-2.5744148,0.5965969,7.1136534\P
 G=C01 [X(C11H5N4O6)]\\@
 The archive entry for this job was punched.


 Make no judgements where you have no compassion.
                               -- Anne McCaffrey
 Job cpu time:       0 days  0 hours  5 minutes  5.2 seconds.
 Elapsed time:       0 days  0 hours  0 minutes 42.7 seconds.
 File lengths (MBytes):  RWF=     10 Int=      0 D2E=      0 Chk=      2 Scr=      1
 Normal termination of Gaussian 16 at Wed Jan 12 18:27:50 2022.
