 Entering Gaussian System, Link 0=g16
 Input=NCCONCCOCCCNCCOCCCNCCOCCNCCNNCCONCCOCCCNCCOCOCNCCOCOCNCCOCCCNCCOCO_4.gjf
 Output=NCCONCCOCCCNCCOCCCNCCOCCNCCNNCCONCCOCCCNCCOCOCNCCOCOCNCCOCCCNCCOCO_4.log
 Initial command:
 /work/01114/jfonner/frontera/gaussian/16rC.01/g16/l1.exe "/scratch1/08249/sa748948/lsqc/23625606/Gau-119045.inp" -scrdir="/scratch1/08249/sa748948/lsqc/23625606/"
 Entering Link 1 = /work/01114/jfonner/frontera/gaussian/16rC.01/g16/l1.exe PID=    119055.
  
 Copyright (c) 1988-2019, Gaussian, Inc.  All Rights Reserved.
  
 This is part of the Gaussian(R) 16 program.  It is based on
 the Gaussian(R) 09 system (copyright 2009, Gaussian, Inc.),
 the Gaussian(R) 03 system (copyright 2003, Gaussian, Inc.),
 the Gaussian(R) 98 system (copyright 1998, Gaussian, Inc.),
 the Gaussian(R) 94 system (copyright 1995, Gaussian, Inc.),
 the Gaussian 92(TM) system (copyright 1992, Gaussian, Inc.),
 the Gaussian 90(TM) system (copyright 1990, Gaussian, Inc.),
 the Gaussian 88(TM) system (copyright 1988, Gaussian, Inc.),
 the Gaussian 86(TM) system (copyright 1986, Carnegie Mellon
 University), and the Gaussian 82(TM) system (copyright 1983,
 Carnegie Mellon University). Gaussian is a federally registered
 trademark of Gaussian, Inc.
  
 This software contains proprietary and confidential information,
 including trade secrets, belonging to Gaussian, Inc.
  
 This software is provided under written license and may be
 used, copied, transmitted, or stored only in accord with that
 written license.
  
 The following legend is applicable only to US Government
 contracts under FAR:
  
                    RESTRICTED RIGHTS LEGEND
  
 Use, reproduction and disclosure by the US Government is
 subject to restrictions as set forth in subparagraphs (a)
 and (c) of the Commercial Computer Software - Restricted
 Rights clause in FAR 52.227-19.
  
 Gaussian, Inc.
 340 Quinnipiac St., Bldg. 40, Wallingford CT 06492
  
  
 ---------------------------------------------------------------
 Warning -- This program may not be used in any manner that
 competes with the business of Gaussian, Inc. or will provide
 assistance to any competitor of Gaussian, Inc.  The licensee
 of this program is prohibited from giving any competitor of
 Gaussian, Inc. access to this program.  By using this program,
 the user acknowledges that Gaussian, Inc. is engaged in the
 business of creating and licensing software in the field of
 computational chemistry and represents and warrants to the
 licensee that it is not a competitor of Gaussian, Inc. and that
 it will not use this program in any manner prohibited above.
 ---------------------------------------------------------------
  

 Cite this work as:
 Gaussian 16, Revision C.01,
 M. J. Frisch, G. W. Trucks, H. B. Schlegel, G. E. Scuseria, 
 M. A. Robb, J. R. Cheeseman, G. Scalmani, V. Barone, 
 G. A. Petersson, H. Nakatsuji, X. Li, M. Caricato, A. V. Marenich, 
 J. Bloino, B. G. Janesko, R. Gomperts, B. Mennucci, H. P. Hratchian, 
 J. V. Ortiz, A. F. Izmaylov, J. L. Sonnenberg, D. Williams-Young, 
 F. Ding, F. Lipparini, F. Egidi, J. Goings, B. Peng, A. Petrone, 
 T. Henderson, D. Ranasinghe, V. G. Zakrzewski, J. Gao, N. Rega, 
 G. Zheng, W. Liang, M. Hada, M. Ehara, K. Toyota, R. Fukuda, 
 J. Hasegawa, M. Ishida, T. Nakajima, Y. Honda, O. Kitao, H. Nakai, 
 T. Vreven, K. Throssell, J. A. Montgomery, Jr., J. E. Peralta, 
 F. Ogliaro, M. J. Bearpark, J. J. Heyd, E. N. Brothers, K. N. Kudin, 
 V. N. Staroverov, T. A. Keith, R. Kobayashi, J. Normand, 
 K. Raghavachari, A. P. Rendell, J. C. Burant, S. S. Iyengar, 
 J. Tomasi, M. Cossi, J. M. Millam, M. Klene, C. Adamo, R. Cammi, 
 J. W. Ochterski, R. L. Martin, K. Morokuma, O. Farkas, 
 J. B. Foresman, and D. J. Fox, Gaussian, Inc., Wallingford CT, 2019.
 
 ******************************************
 Gaussian 16:  ES64L-G16RevC.01  3-Jul-2019
                12-Jan-2022 
 ******************************************
 %chk=NCCONCCOCCCNCCOCCCNCCOCCNCCNNCCONCCOCCCNCCOCOCNCCOCOCNCCOCCCNCCOCO_4.chk
 %nproc=56
 Will use up to   56 processors via shared memory.
 %mem=3gb
 ---------------------
 #p pm6 pop=npa nosymm
 ---------------------
 1/38=1,172=1/1;
 2/12=2,15=1,17=6,18=5,40=1/2;
 3/5=2,25=1,41=3900000/1,2,3;
 4/35=1/1;
 5/5=2,35=1,38=5/2;
 6/7=2,8=2,9=2,10=2,28=1,40=-1/1,7;
 99/5=1,9=1/99;
 Leave Link    1 at Wed Jan 12 18:27:08 2022, MaxMem=   402653184 cpu:               2.4 elap:               0.3
 (Enter /work/01114/jfonner/frontera/gaussian/16rC.01/g16/l101.exe)
 --------------
 Atom number=17
 --------------
 Symbolic Z-matrix:
 Charge =  1 Multiplicity = 1
 c                     0.84009  -0.85408   6.79201 
 o                     1.027    -2.02199   6.72004 
 n                     1.81009   0.00199   7.02303 
 c                     3.19102  -0.429     7.101 
 c                     3.91097   0.25811   8.22902 
 o                     4.06399   1.47797   8.22798 
 n                     4.36398  -0.52686   9.18903 
 c                     5.06703   0.02001   10.32598 
 c                     3.871    -0.10298   5.74803 
 c                     4.27106   0.81681   11.296 
 o                     4.35894   2.03299   11.36696 
 n                     3.49195   0.10405   12.07292 
 c                     2.58488   0.67696   13.08501 
 h                    -0.15532  -0.47128   6.70529 
 h                     4.86073  -0.49145   5.62789 
 h                     2.88847   0.22277   14.00503 
 h                     1.55907   0.43278   12.90338 
 
 ITRead=  0  0  0  0  0  0  0  0  0  0  0  0  0  0  0  0  0
 MicOpt= -1 -1 -1 -1 -1 -1 -1 -1 -1 -1 -1 -1 -1 -1 -1 -1 -1
 NAtoms=     17 NQM=       17 NQMF=       0 NMMI=      0 NMMIF=      0
                NMic=       0 NMicF=      0.
                    Isotopes and Nuclear Properties:
 (Nuclear quadrupole moments (NQMom) in fm**2, nuclear magnetic moments (NMagM)
  in nuclear magnetons)

  Atom         1           2           3           4           5           6           7           8           9          10
 IAtWgt=          12          16          14          12          12          16          14          12          12          12
 AtmWgt=  12.0000000  15.9949146  14.0030740  12.0000000  12.0000000  15.9949146  14.0030740  12.0000000  12.0000000  12.0000000
 NucSpn=           0           0           2           0           0           0           2           0           0           0
 AtZEff=  -0.0000000  -0.0000000  -0.0000000  -0.0000000  -0.0000000  -0.0000000  -0.0000000  -0.0000000  -0.0000000  -0.0000000
 NQMom=    0.0000000   0.0000000   2.0440000   0.0000000   0.0000000   0.0000000   2.0440000   0.0000000   0.0000000   0.0000000
 NMagM=    0.0000000   0.0000000   0.4037610   0.0000000   0.0000000   0.0000000   0.4037610   0.0000000   0.0000000   0.0000000
 AtZNuc=   6.0000000   8.0000000   7.0000000   6.0000000   6.0000000   8.0000000   7.0000000   6.0000000   6.0000000   6.0000000

  Atom        11          12          13          14          15          16          17
 IAtWgt=          16          14          12           1           1           1           1
 AtmWgt=  15.9949146  14.0030740  12.0000000   1.0078250   1.0078250   1.0078250   1.0078250
 NucSpn=           0           2           0           1           1           1           1
 AtZEff=  -0.0000000  -0.0000000  -0.0000000  -0.0000000  -0.0000000  -0.0000000  -0.0000000
 NQMom=    0.0000000   2.0440000   0.0000000   0.0000000   0.0000000   0.0000000   0.0000000
 NMagM=    0.0000000   0.4037610   0.0000000   2.7928460   2.7928460   2.7928460   2.7928460
 AtZNuc=   8.0000000   7.0000000   6.0000000   1.0000000   1.0000000   1.0000000   1.0000000
 Leave Link  101 at Wed Jan 12 18:27:08 2022, MaxMem=   402653184 cpu:               7.1 elap:               0.9
 (Enter /work/01114/jfonner/frontera/gaussian/16rC.01/g16/l202.exe)
                          Input orientation:                          
 ---------------------------------------------------------------------
 Center     Atomic      Atomic             Coordinates (Angstroms)
 Number     Number       Type             X           Y           Z
 ---------------------------------------------------------------------
      1          6           0        0.840088   -0.854084    6.792008
      2          8           0        1.027000   -2.021994    6.720045
      3          7           0        1.810094    0.001994    7.023026
      4          6           0        3.191019   -0.428997    7.101001
      5          6           0        3.910969    0.258113    8.229017
      6          8           0        4.063989    1.477972    8.227979
      7          7           0        4.363984   -0.526864    9.189034
      8          6           0        5.067025    0.020007   10.325977
      9          6           0        3.871003   -0.102977    5.748034
     10          6           0        4.271059    0.816811   11.295999
     11          8           0        4.358940    2.032989   11.366958
     12          7           0        3.491947    0.104053   12.072915
     13          6           0        2.584883    0.676960   13.085005
     14          1           0       -0.155321   -0.471276    6.705295
     15          1           0        4.860726   -0.491454    5.627890
     16          1           0        2.888474    0.222768   14.005028
     17          1           0        1.559072    0.432778   12.903383
 ---------------------------------------------------------------------
                    Distance matrix (angstroms):
                    1          2          3          4          5
     1  C    0.000000
     2  O    1.184960   0.000000
     3  N    1.314211   2.191247   0.000000
     4  C    2.408953   2.713991   1.448719   0.000000
     5  C    3.568233   3.974061   2.435916   1.504283   0.000000
     6  O    4.230134   4.873082   2.951349   2.380900   1.229419
     7  N    4.274418   4.412118   3.390226   2.396937   1.320244
     8  C    5.578528   5.787428   4.638686   3.757855   2.406326
     9  C    3.292490   3.565920   2.425689   1.548931   2.507441
    10  C    5.903337   6.286659   4.997856   4.507386   3.138182
    11  O    6.453502   7.009887   5.430590   5.061997   3.632842
    12  N    5.986515   6.264923   5.323573   5.009454   3.869738
    13  C    6.707475   7.086895   6.148453   6.115460   5.051194
    14  H    1.070000   1.950084   2.046410   3.369920   4.403232
    15  H    4.201452   4.269990   3.390612   2.227527   2.868754
    16  H    7.575167   7.846976   7.068239   6.941320   5.865923
    17  H    6.286641   6.674030   5.901456   6.088805   5.235612
                    6          7          8          9         10
     6  O    0.000000
     7  N    2.243432   0.000000
     8  C    2.744693   1.444291   0.000000
     9  C    2.947333   3.501884   4.733197   0.000000
    10  C    3.145275   2.500679   1.486405   5.637904   0.000000
    11  O    3.201286   3.360986   2.374262   6.030982   1.221412
    12  N    4.122914   3.078194   2.353663   6.339611   1.310968
    13  C    5.140047   4.448931   3.768933   7.489563   2.462375
    14  H    4.890880   5.157147   6.373665   4.154910   6.505887
    15  H    3.357661   3.595797   4.730346   1.070000   5.846941
    16  H    6.027576   5.092434   4.280493   8.321624   3.098914
    17  H    5.406149   4.752351   4.372544   7.538639   3.175853
                   11         12         13         14         15
    11  O    0.000000
    12  N    2.229539   0.000000
    13  C    2.817407   1.474895   0.000000
    14  H    6.955646   6.514977   7.037604   0.000000
    15  H    6.289794   6.615628   7.883732   5.130491   0.000000
    16  H    3.521162   2.027642   1.070000   7.939301   8.635759
    17  H    3.572190   2.129259   1.070000   6.494055   8.042881
                   16         17
    16  H    0.000000
    17  H    1.739263   0.000000
 Symmetry turned off by external request.
 Stoichiometry    C7H4N3O3(1+)
 Framework group  C1[X(C7H4N3O3)]
 Deg. of freedom    45
 Full point group                 C1      NOp   1
 Rotational constants (GHZ):           1.4117809           0.4292512           0.3692120
 Leave Link  202 at Wed Jan 12 18:27:09 2022, MaxMem=   402653184 cpu:               3.4 elap:               0.4
 (Enter /work/01114/jfonner/frontera/gaussian/16rC.01/g16/l301.exe)
 Standard basis: VSTO-6G (5D, 7F)
 Ernie: Thresh=  0.10000D-02 Tol=  0.10000D-05 Strict=F.
  NNHCO=     0 NNPyr=     0 NCTC=     0               EPep=         0.000000000
    EC=       304.170823204  ECS=         4.235570841   EG=         0.347512219
   EHC=         0.001665641  EAt=       -82.231568766  AtH=         3.063403947
 EPDDG=         0.000000000  ECC=       308.755571906 EAtT=        85.294972712
    56 basis functions,   336 primitive gaussians,    56 cartesian basis functions
    32 alpha electrons       32 beta electrons
       nuclear repulsion energy       394.0505446180 Hartrees.
 IExCor=    0 DFT=F Ex=HF Corr=None ExCW=0 ScaHFX=  1.000000
 ScaDFX=  1.000000  1.000000  1.000000  1.000000 ScalE2=  1.000000  1.000000
 IRadAn=      5 IRanWt=     -1 IRanGd=            0 ICorTp=0 IEmpDi=  4
 Integral buffers will be    131072 words long.
 Regular integral format.
 Two-electron integral symmetry is turned off.
 Leave Link  301 at Wed Jan 12 18:27:09 2022, MaxMem=   402653184 cpu:               3.6 elap:               0.5
 (Enter /work/01114/jfonner/frontera/gaussian/16rC.01/g16/l302.exe)
 Do NDO integrals.
 NPDir=0 NMtPBC=     1 NCelOv=     1 NCel=       1 NClECP=     1 NCelD=      1
         NCelK=      1 NCelE2=     1 NClLst=     1 CellRange=     0.0.
 One-electron integrals computed using PRISM.
 NBasis=    56 RedAO= F EigKep=  0.00D+00  NBF=    56
 NBsUse=    56 1.00D-04 EigRej=  0.00D+00 NBFU=    56
 Leave Link  302 at Wed Jan 12 18:27:13 2022, MaxMem=   402653184 cpu:              22.0 elap:               3.2
 (Enter /work/01114/jfonner/frontera/gaussian/16rC.01/g16/l303.exe)
 DipDrv:  MaxL=1.
 Leave Link  303 at Wed Jan 12 18:27:13 2022, MaxMem=   402653184 cpu:               3.6 elap:               0.5
 (Enter /work/01114/jfonner/frontera/gaussian/16rC.01/g16/l401.exe)
 Simple Huckel Guess.
 JPrj=0 DoOrth=F DoCkMO=F.
 Leave Link  401 at Wed Jan 12 18:27:15 2022, MaxMem=   402653184 cpu:              11.6 elap:               1.6
 (Enter /work/01114/jfonner/frontera/gaussian/16rC.01/g16/l502.exe)
 Keep J ints in memory in canonical form, NReq=868926.
 FoFCou: FMM=F IPFlag=           0 FMFlag=           0 FMFlg1=           0
         NFxFlg=           0 DoJE=F BraDBF=F KetDBF=F FulRan=T
         wScrn=  0.000000 ICntrl=       600 IOpCl=  2 I1Cent=           0 NGrid=           0
         NMat0=    1 NMatS0=    134 NMatT0=    0 NMatD0=    1 NMtDS0=    0 NMtDT0=    0
 Symmetry not used in FoFCou.
 Two-electron integral symmetry not used.
 Closed shell SCF:
 Using DIIS extrapolation, IDIIS=  1040.
 Overlap will be assumed to be unity.
 NGot=   402653184 LenX=   402574525 LenY=   402570948
 Requested convergence on RMS density matrix=1.00D-08 within 128 cycles.
 Requested convergence on MAX density matrix=1.00D-06.
 Requested convergence on             energy=1.00D-06.
 No special actions if energy rises.

 Cycle   1  Pass 1  IDiag  1:
 E=  1.61364576996442    
 DIIS: error= 3.81D-02 at cycle   1 NSaved=   1.
 NSaved= 1 IEnMin= 1 EnMin=  1.61364576996442     IErMin= 1 ErrMin= 3.81D-02
 ErrMax= 3.81D-02  0.00D+00 EMaxC= 1.00D-01 BMatC= 1.67D-01 BMatP= 1.67D-01
 IDIUse=3 WtCom= 6.19D-01 WtEn= 3.81D-01
 Coeff-Com:  0.100D+01
 Coeff-En:   0.100D+01
 Coeff:      0.100D+01
 GapD=    2.000 DampG=2.000 DampE=0.500 DampFc=1.0000 IDamp=-1.
 RMSDP=1.87D-02 MaxDP=1.53D-01              OVMax= 0.00D+00

 Cycle   2  Pass 1  IDiag  1:
 E= 0.955066000965076     Delta-E=       -0.658579768999 Rises=F Damp=F
 DIIS: error= 2.62D-02 at cycle   2 NSaved=   2.
 NSaved= 2 IEnMin= 2 EnMin= 0.955066000965076     IErMin= 2 ErrMin= 2.62D-02
 ErrMax= 2.62D-02  0.00D+00 EMaxC= 1.00D-01 BMatC= 2.77D-02 BMatP= 1.67D-01
 IDIUse=3 WtCom= 7.38D-01 WtEn= 2.62D-01
 Coeff-Com: -0.147D+00 0.115D+01
 Coeff-En:   0.000D+00 0.100D+01
 Coeff:     -0.109D+00 0.111D+01
 RMSDP=7.23D-03 MaxDP=6.05D-02 DE=-6.59D-01 OVMax= 0.00D+00

 Cycle   3  Pass 1  IDiag  1:
 E= 0.844846719164593     Delta-E=       -0.110219281800 Rises=F Damp=F
 DIIS: error= 7.66D-03 at cycle   3 NSaved=   3.
 NSaved= 3 IEnMin= 3 EnMin= 0.844846719164593     IErMin= 3 ErrMin= 7.66D-03
 ErrMax= 7.66D-03  0.00D+00 EMaxC= 1.00D-01 BMatC= 4.10D-03 BMatP= 2.77D-02
 IDIUse=3 WtCom= 9.23D-01 WtEn= 7.66D-02
 Coeff-Com: -0.901D-01-0.104D+00 0.119D+01
 Coeff-En:   0.000D+00 0.000D+00 0.100D+01
 Coeff:     -0.832D-01-0.958D-01 0.118D+01
 RMSDP=4.19D-03 MaxDP=3.81D-02 DE=-1.10D-01 OVMax= 0.00D+00

 Cycle   4  Pass 1  IDiag  3:
 E= 0.819132575373601     Delta-E=       -0.025714143791 Rises=F Damp=F
 DIIS: error= 2.47D-03 at cycle   4 NSaved=   4.
 NSaved= 4 IEnMin= 4 EnMin= 0.819132575373601     IErMin= 4 ErrMin= 2.47D-03
 ErrMax= 2.47D-03  0.00D+00 EMaxC= 1.00D-01 BMatC= 6.07D-04 BMatP= 4.10D-03
 IDIUse=3 WtCom= 9.75D-01 WtEn= 2.47D-02
 Coeff-Com:  0.410D-01-0.672D-01-0.275D+00 0.130D+01
 Coeff-En:   0.000D+00 0.000D+00 0.000D+00 0.100D+01
 Coeff:      0.400D-01-0.655D-01-0.268D+00 0.129D+01
 Gap=     0.135 Goal=   None    Shift=    0.000
 RMSDP=2.64D-03 MaxDP=2.76D-02 DE=-2.57D-02 OVMax= 6.64D-02

 Cycle   5  Pass 1  IDiag  3:
 E= 0.812202509591259     Delta-E=       -0.006930065782 Rises=F Damp=F
 DIIS: error= 1.89D-03 at cycle   5 NSaved=   5.
 NSaved= 5 IEnMin= 5 EnMin= 0.812202509591259     IErMin= 5 ErrMin= 1.89D-03
 ErrMax= 1.89D-03  0.00D+00 EMaxC= 1.00D-01 BMatC= 2.00D-04 BMatP= 6.07D-04
 IDIUse=3 WtCom= 9.81D-01 WtEn= 1.89D-02
 Coeff-Com: -0.152D-01 0.516D-01-0.608D-02-0.644D+00 0.161D+01
 Coeff-En:   0.000D+00 0.000D+00 0.000D+00 0.000D+00 0.100D+01
 Coeff:     -0.150D-01 0.506D-01-0.596D-02-0.632D+00 0.160D+01
 Gap=     0.145 Goal=   None    Shift=    0.000
 RMSDP=2.22D-03 MaxDP=3.30D-02 DE=-6.93D-03 OVMax= 5.53D-02

 Cycle   6  Pass 1  IDiag  3:
 E= 0.808598911603326     Delta-E=       -0.003603597988 Rises=F Damp=F
 DIIS: error= 1.55D-03 at cycle   6 NSaved=   6.
 NSaved= 6 IEnMin= 6 EnMin= 0.808598911603326     IErMin= 6 ErrMin= 1.55D-03
 ErrMax= 1.55D-03  0.00D+00 EMaxC= 1.00D-01 BMatC= 8.42D-05 BMatP= 2.00D-04
 IDIUse=3 WtCom= 9.84D-01 WtEn= 1.55D-02
 Coeff-Com:  0.187D-03-0.244D-01 0.106D+00 0.106D+00-0.127D+01 0.209D+01
 Coeff-En:   0.000D+00 0.000D+00 0.000D+00 0.000D+00 0.000D+00 0.100D+01
 Coeff:      0.184D-03-0.240D-01 0.104D+00 0.104D+00-0.125D+01 0.207D+01
 Gap=     0.151 Goal=   None    Shift=    0.000
 RMSDP=2.17D-03 MaxDP=4.16D-02 DE=-3.60D-03 OVMax= 5.09D-02

 Cycle   7  Pass 1  IDiag  3:
 E= 0.806470184511340     Delta-E=       -0.002128727092 Rises=F Damp=F
 DIIS: error= 1.11D-03 at cycle   7 NSaved=   7.
 NSaved= 7 IEnMin= 7 EnMin= 0.806470184511340     IErMin= 7 ErrMin= 1.11D-03
 ErrMax= 1.11D-03  0.00D+00 EMaxC= 1.00D-01 BMatC= 3.07D-05 BMatP= 8.42D-05
 IDIUse=3 WtCom= 9.89D-01 WtEn= 1.11D-02
 Coeff-Com:  0.722D-02-0.150D-01-0.299D-01 0.144D+00 0.136D+00-0.101D+01
 Coeff-Com:  0.177D+01
 Coeff-En:   0.000D+00 0.000D+00 0.000D+00 0.000D+00 0.000D+00 0.000D+00
 Coeff-En:   0.100D+01
 Coeff:      0.714D-02-0.149D-01-0.295D-01 0.143D+00 0.135D+00-0.100D+01
 Coeff:      0.176D+01
 Gap=     0.153 Goal=   None    Shift=    0.000
 RMSDP=1.25D-03 MaxDP=2.90D-02 DE=-2.13D-03 OVMax= 2.43D-02

 Cycle   8  Pass 1  IDiag  3:
 E= 0.805725657211497     Delta-E=       -0.000744527300 Rises=F Damp=F
 DIIS: error= 7.41D-04 at cycle   8 NSaved=   8.
 NSaved= 8 IEnMin= 8 EnMin= 0.805725657211497     IErMin= 8 ErrMin= 7.41D-04
 ErrMax= 7.41D-04  0.00D+00 EMaxC= 1.00D-01 BMatC= 1.12D-05 BMatP= 3.07D-05
 IDIUse=3 WtCom= 9.93D-01 WtEn= 7.41D-03
 Coeff-Com: -0.218D-02 0.145D-01-0.360D-01-0.902D-01 0.453D+00-0.483D+00
 Coeff-Com: -0.641D+00 0.178D+01
 Coeff-En:   0.000D+00 0.000D+00 0.000D+00 0.000D+00 0.000D+00 0.000D+00
 Coeff-En:   0.000D+00 0.100D+01
 Coeff:     -0.216D-02 0.144D-01-0.358D-01-0.895D-01 0.450D+00-0.480D+00
 Coeff:     -0.636D+00 0.178D+01
 Gap=     0.155 Goal=   None    Shift=    0.000
 RMSDP=9.60D-04 MaxDP=2.39D-02 DE=-7.45D-04 OVMax= 2.02D-02

 Cycle   9  Pass 1  IDiag  3:
 E= 0.805408205635047     Delta-E=       -0.000317451576 Rises=F Damp=F
 DIIS: error= 3.61D-04 at cycle   9 NSaved=   9.
 NSaved= 9 IEnMin= 9 EnMin= 0.805408205635047     IErMin= 9 ErrMin= 3.61D-04
 ErrMax= 3.61D-04  0.00D+00 EMaxC= 1.00D-01 BMatC= 2.87D-06 BMatP= 1.12D-05
 IDIUse=3 WtCom= 9.96D-01 WtEn= 3.61D-03
 Coeff-Com: -0.120D-02 0.278D-02 0.896D-02-0.119D-01-0.157D+00 0.389D+00
 Coeff-Com: -0.313D+00-0.440D+00 0.152D+01
 Coeff-En:   0.000D+00 0.000D+00 0.000D+00 0.000D+00 0.000D+00 0.000D+00
 Coeff-En:   0.000D+00 0.000D+00 0.100D+01
 Coeff:     -0.120D-02 0.277D-02 0.893D-02-0.119D-01-0.156D+00 0.388D+00
 Coeff:     -0.311D+00-0.438D+00 0.152D+01
 Gap=     0.155 Goal=   None    Shift=    0.000
 RMSDP=4.57D-04 MaxDP=1.12D-02 DE=-3.17D-04 OVMax= 9.86D-03

 Cycle  10  Pass 1  IDiag  3:
 E= 0.805339325457680     Delta-E=       -0.000068880177 Rises=F Damp=F
 DIIS: error= 1.42D-04 at cycle  10 NSaved=  10.
 NSaved=10 IEnMin=10 EnMin= 0.805339325457680     IErMin=10 ErrMin= 1.42D-04
 ErrMax= 1.42D-04  0.00D+00 EMaxC= 1.00D-01 BMatC= 6.02D-07 BMatP= 2.87D-06
 IDIUse=3 WtCom= 9.99D-01 WtEn= 1.42D-03
 Coeff-Com:  0.266D-03-0.317D-03-0.159D-02 0.185D-02 0.406D-01-0.994D-01
 Coeff-Com:  0.133D+00-0.445D-01-0.525D+00 0.149D+01
 Coeff-En:   0.000D+00 0.000D+00 0.000D+00 0.000D+00 0.000D+00 0.000D+00
 Coeff-En:   0.000D+00 0.000D+00 0.000D+00 0.100D+01
 Coeff:      0.266D-03-0.317D-03-0.158D-02 0.185D-02 0.406D-01-0.993D-01
 Coeff:      0.133D+00-0.444D-01-0.524D+00 0.149D+01
 Gap=     0.155 Goal=   None    Shift=    0.000
 RMSDP=1.85D-04 MaxDP=4.11D-03 DE=-6.89D-05 OVMax= 3.64D-03

 Cycle  11  Pass 1  IDiag  3:
 E= 0.805327128407157     Delta-E=       -0.000012197051 Rises=F Damp=F
 DIIS: error= 4.14D-05 at cycle  11 NSaved=  11.
 NSaved=11 IEnMin=11 EnMin= 0.805327128407157     IErMin=11 ErrMin= 4.14D-05
 ErrMax= 4.14D-05  0.00D+00 EMaxC= 1.00D-01 BMatC= 1.25D-07 BMatP= 6.02D-07
 IDIUse=1 WtCom= 1.00D+00 WtEn= 0.00D+00
 Coeff-Com: -0.897D-04 0.223D-03-0.287D-03-0.757D-03-0.663D-02 0.699D-02
 Coeff-Com: -0.103D-01 0.507D-01 0.135D-01-0.595D+00 0.154D+01
 Coeff:     -0.897D-04 0.223D-03-0.287D-03-0.757D-03-0.663D-02 0.699D-02
 Coeff:     -0.103D-01 0.507D-01 0.135D-01-0.595D+00 0.154D+01
 Gap=     0.156 Goal=   None    Shift=    0.000
 RMSDP=7.40D-05 MaxDP=1.31D-03 DE=-1.22D-05 OVMax= 1.26D-03

 Cycle  12  Pass 1  IDiag  3:
 E= 0.805324847987720     Delta-E=       -0.000002280419 Rises=F Damp=F
 DIIS: error= 1.32D-05 at cycle  12 NSaved=  12.
 NSaved=12 IEnMin=12 EnMin= 0.805324847987720     IErMin=12 ErrMin= 1.32D-05
 ErrMax= 1.32D-05  0.00D+00 EMaxC= 1.00D-01 BMatC= 2.53D-08 BMatP= 1.25D-07
 IDIUse=1 WtCom= 1.00D+00 WtEn= 0.00D+00
 Coeff-Com:  0.678D-04-0.212D-03 0.367D-03 0.116D-02-0.720D-03 0.348D-02
 Coeff-Com: -0.269D-02-0.189D-01 0.313D-01 0.128D+00-0.766D+00 0.162D+01
 Coeff:      0.678D-04-0.212D-03 0.367D-03 0.116D-02-0.720D-03 0.348D-02
 Coeff:     -0.269D-02-0.189D-01 0.313D-01 0.128D+00-0.766D+00 0.162D+01
 Gap=     0.156 Goal=   None    Shift=    0.000
 RMSDP=3.27D-05 MaxDP=2.26D-04 DE=-2.28D-06 OVMax= 6.43D-04

 Cycle  13  Pass 1  IDiag  3:
 E= 0.805324342138306     Delta-E=       -0.000000505849 Rises=F Damp=F
 DIIS: error= 7.00D-06 at cycle  13 NSaved=  13.
 NSaved=13 IEnMin=13 EnMin= 0.805324342138306     IErMin=13 ErrMin= 7.00D-06
 ErrMax= 7.00D-06  0.00D+00 EMaxC= 1.00D-01 BMatC= 6.40D-09 BMatP= 2.53D-08
 IDIUse=1 WtCom= 1.00D+00 WtEn= 0.00D+00
 Coeff-Com: -0.279D-04 0.149D-03-0.512D-03-0.599D-03 0.266D-02-0.715D-02
 Coeff-Com:  0.481D-02 0.119D-01-0.302D-01 0.115D-01 0.238D+00-0.109D+01
 Coeff-Com:  0.186D+01
 Coeff:     -0.279D-04 0.149D-03-0.512D-03-0.599D-03 0.266D-02-0.715D-02
 Coeff:      0.481D-02 0.119D-01-0.302D-01 0.115D-01 0.238D+00-0.109D+01
 Coeff:      0.186D+01
 Gap=     0.156 Goal=   None    Shift=    0.000
 RMSDP=1.84D-05 MaxDP=1.49D-04 DE=-5.06D-07 OVMax= 4.14D-04

 Cycle  14  Pass 1  IDiag  3:
 E= 0.805324202698102     Delta-E=       -0.000000139440 Rises=F Damp=F
 DIIS: error= 3.21D-06 at cycle  14 NSaved=  14.
 NSaved=14 IEnMin=14 EnMin= 0.805324202698102     IErMin=14 ErrMin= 3.21D-06
 ErrMax= 3.21D-06  0.00D+00 EMaxC= 1.00D-01 BMatC= 1.34D-09 BMatP= 6.40D-09
 IDIUse=1 WtCom= 1.00D+00 WtEn= 0.00D+00
 Coeff-Com:  0.216D-04-0.108D-03 0.316D-03 0.482D-03-0.182D-02 0.440D-02
 Coeff-Com: -0.816D-03-0.117D-01 0.207D-01-0.180D-01-0.298D-01 0.305D+00
 Coeff-Com: -0.998D+00 0.173D+01
 Coeff:      0.216D-04-0.108D-03 0.316D-03 0.482D-03-0.182D-02 0.440D-02
 Coeff:     -0.816D-03-0.117D-01 0.207D-01-0.180D-01-0.298D-01 0.305D+00
 Coeff:     -0.998D+00 0.173D+01
 Gap=     0.156 Goal=   None    Shift=    0.000
 RMSDP=9.01D-06 MaxDP=6.89D-05 DE=-1.39D-07 OVMax= 2.11D-04

 Cycle  15  Pass 1  IDiag  3:
 E= 0.805324174317661     Delta-E=       -0.000000028380 Rises=F Damp=F
 DIIS: error= 1.43D-06 at cycle  15 NSaved=  15.
 NSaved=15 IEnMin=15 EnMin= 0.805324174317661     IErMin=15 ErrMin= 1.43D-06
 ErrMax= 1.43D-06  0.00D+00 EMaxC= 1.00D-01 BMatC= 2.86D-10 BMatP= 1.34D-09
 IDIUse=1 WtCom= 1.00D+00 WtEn= 0.00D+00
 Coeff-Com: -0.191D-07 0.345D-07-0.490D-04-0.208D-04 0.256D-03-0.139D-02
 Coeff-Com:  0.587D-03 0.269D-02-0.595D-02 0.141D-01-0.391D-01 0.648D-01
 Coeff-Com:  0.100D+00-0.798D+00 0.166D+01
 Coeff:     -0.191D-07 0.345D-07-0.490D-04-0.208D-04 0.256D-03-0.139D-02
 Coeff:      0.587D-03 0.269D-02-0.595D-02 0.141D-01-0.391D-01 0.648D-01
 Coeff:      0.100D+00-0.798D+00 0.166D+01
 Gap=     0.156 Goal=   None    Shift=    0.000
 RMSDP=3.85D-06 MaxDP=3.28D-05 DE=-2.84D-08 OVMax= 8.80D-05

 Cycle  16  Pass 1  IDiag  3:
 E= 0.805324168295670     Delta-E=       -0.000000006022 Rises=F Damp=F
 DIIS: error= 7.81D-07 at cycle  16 NSaved=  16.
 NSaved=16 IEnMin=16 EnMin= 0.805324168295670     IErMin=16 ErrMin= 7.81D-07
 ErrMax= 7.81D-07  0.00D+00 EMaxC= 1.00D-01 BMatC= 7.42D-11 BMatP= 2.86D-10
 IDIUse=1 WtCom= 1.00D+00 WtEn= 0.00D+00
 Coeff-Com:  0.377D-05-0.155D-04 0.144D-04 0.475D-04-0.177D-04 0.307D-04
 Coeff-Com:  0.648D-03-0.130D-02 0.106D-02-0.628D-02 0.329D-01-0.100D+00
 Coeff-Com:  0.142D+00 0.888D-01-0.894D+00 0.174D+01
 Coeff:      0.377D-05-0.155D-04 0.144D-04 0.475D-04-0.177D-04 0.307D-04
 Coeff:      0.648D-03-0.130D-02 0.106D-02-0.628D-02 0.329D-01-0.100D+00
 Coeff:      0.142D+00 0.888D-01-0.894D+00 0.174D+01
 Gap=     0.156 Goal=   None    Shift=    0.000
 RMSDP=1.86D-06 MaxDP=1.56D-05 DE=-6.02D-09 OVMax= 3.50D-05

 Cycle  17  Pass 1  IDiag  3:
 E= 0.805324166708431     Delta-E=       -0.000000001587 Rises=F Damp=F
 DIIS: error= 4.98D-07 at cycle  17 NSaved=  17.
 NSaved=17 IEnMin=17 EnMin= 0.805324166708431     IErMin=17 ErrMin= 4.98D-07
 ErrMax= 4.98D-07  0.00D+00 EMaxC= 1.00D-01 BMatC= 1.86D-11 BMatP= 7.42D-11
 IDIUse=1 WtCom= 1.00D+00 WtEn= 0.00D+00
 Coeff-Com: -0.693D-06-0.123D-05 0.139D-04-0.498D-05-0.130D-03 0.208D-03
 Coeff-Com: -0.448D-03 0.497D-03-0.189D-03 0.322D-02-0.185D-01 0.592D-01
 Coeff-Com: -0.106D+00 0.386D-01 0.377D+00-0.132D+01 0.197D+01
 Coeff:     -0.693D-06-0.123D-05 0.139D-04-0.498D-05-0.130D-03 0.208D-03
 Coeff:     -0.448D-03 0.497D-03-0.189D-03 0.322D-02-0.185D-01 0.592D-01
 Coeff:     -0.106D+00 0.386D-01 0.377D+00-0.132D+01 0.197D+01
 Gap=     0.156 Goal=   None    Shift=    0.000
 RMSDP=1.19D-06 MaxDP=9.01D-06 DE=-1.59D-09 OVMax= 2.69D-05

 Cycle  18  Pass 1  IDiag  3:
 E= 0.805324166212984     Delta-E=       -0.000000000495 Rises=F Damp=F
 DIIS: error= 2.33D-07 at cycle  18 NSaved=  18.
 NSaved=18 IEnMin=18 EnMin= 0.805324166212984     IErMin=18 ErrMin= 2.33D-07
 ErrMax= 2.33D-07  0.00D+00 EMaxC= 1.00D-01 BMatC= 4.73D-12 BMatP= 1.86D-11
 IDIUse=1 WtCom= 1.00D+00 WtEn= 0.00D+00
 Coeff-Com:  0.102D-05-0.243D-05-0.187D-05 0.948D-05 0.516D-04-0.117D-03
 Coeff-Com:  0.222D-03-0.185D-03-0.134D-04-0.130D-02 0.793D-02-0.253D-01
 Coeff-Com:  0.515D-01-0.479D-01-0.876D-01 0.578D+00-0.149D+01 0.201D+01
 Coeff:      0.102D-05-0.243D-05-0.187D-05 0.948D-05 0.516D-04-0.117D-03
 Coeff:      0.222D-03-0.185D-03-0.134D-04-0.130D-02 0.793D-02-0.253D-01
 Coeff:      0.515D-01-0.479D-01-0.876D-01 0.578D+00-0.149D+01 0.201D+01
 Gap=     0.156 Goal=   None    Shift=    0.000
 RMSDP=6.12D-07 MaxDP=4.53D-06 DE=-4.95D-10 OVMax= 1.25D-05

 Cycle  19  Pass 1  IDiag  3:
 E= 0.805324166096455     Delta-E=       -0.000000000117 Rises=F Damp=F
 DIIS: error= 9.88D-08 at cycle  19 NSaved=  19.
 NSaved=19 IEnMin=19 EnMin= 0.805324166096455     IErMin=19 ErrMin= 9.88D-08
 ErrMax= 9.88D-08  0.00D+00 EMaxC= 1.00D-01 BMatC= 9.05D-13 BMatP= 4.73D-12
 IDIUse=1 WtCom= 1.00D+00 WtEn= 0.00D+00
 Coeff-Com: -0.803D-06 0.238D-05-0.241D-05-0.964D-05 0.109D-05 0.177D-04
 Coeff-Com: -0.953D-04 0.135D-03-0.699D-04 0.483D-03-0.247D-02 0.774D-02
 Coeff-Com: -0.153D-01 0.150D-01 0.141D-01-0.157D+00 0.539D+00-0.122D+01
 Coeff-Com:  0.181D+01
 Coeff:     -0.803D-06 0.238D-05-0.241D-05-0.964D-05 0.109D-05 0.177D-04
 Coeff:     -0.953D-04 0.135D-03-0.699D-04 0.483D-03-0.247D-02 0.774D-02
 Coeff:     -0.153D-01 0.150D-01 0.141D-01-0.157D+00 0.539D+00-0.122D+01
 Coeff:      0.181D+01
 Gap=     0.156 Goal=   None    Shift=    0.000
 RMSDP=2.50D-07 MaxDP=1.55D-06 DE=-1.17D-10 OVMax= 4.56D-06

 Cycle  20  Pass 1  IDiag  3:
 E= 0.805324166078094     Delta-E=       -0.000000000018 Rises=F Damp=F
 DIIS: error= 5.29D-08 at cycle  20 NSaved=  20.
 NSaved=20 IEnMin=20 EnMin= 0.805324166078094     IErMin=20 ErrMin= 5.29D-08
 ErrMax= 5.29D-08  0.00D+00 EMaxC= 1.00D-01 BMatC= 1.72D-13 BMatP= 9.05D-13
 IDIUse=1 WtCom= 1.00D+00 WtEn= 0.00D+00
 Coeff-Com:  0.139D-06-0.436D-07 0.380D-06 0.652D-06-0.165D-05-0.261D-05
 Coeff-Com:  0.108D-04 0.454D-05-0.287D-04-0.324D-04 0.120D-03-0.572D-03
 Coeff-Com:  0.241D-02-0.713D-02 0.179D-01-0.219D-01-0.384D-01 0.303D+00
 Coeff-Com: -0.974D+00 0.172D+01
 Coeff:      0.139D-06-0.436D-07 0.380D-06 0.652D-06-0.165D-05-0.261D-05
 Coeff:      0.108D-04 0.454D-05-0.287D-04-0.324D-04 0.120D-03-0.572D-03
 Coeff:      0.241D-02-0.713D-02 0.179D-01-0.219D-01-0.384D-01 0.303D+00
 Coeff:     -0.974D+00 0.172D+01
 Gap=     0.156 Goal=   None    Shift=    0.000
 RMSDP=7.97D-08 MaxDP=7.32D-07 DE=-1.84D-11 OVMax= 1.36D-06

 Cycle  21  Pass 1  IDiag  3:
 E= 0.805324166074797     Delta-E=       -0.000000000003 Rises=F Damp=F
 DIIS: error= 2.19D-08 at cycle  21 NSaved=  20.
 NSaved=20 IEnMin=20 EnMin= 0.805324166074797     IErMin=20 ErrMin= 2.19D-08
 ErrMax= 2.19D-08  0.00D+00 EMaxC= 1.00D-01 BMatC= 3.11D-14 BMatP= 1.72D-13
 IDIUse=1 WtCom= 1.00D+00 WtEn= 0.00D+00
 Coeff-Com: -0.214D-07-0.105D-05 0.129D-05 0.303D-05-0.774D-05 0.800D-05
 Coeff-Com: -0.413D-05-0.604D-07-0.396D-05 0.186D-03-0.839D-03 0.148D-02
 Coeff-Com:  0.772D-04-0.764D-02 0.256D-01-0.495D-01 0.188D-01 0.223D+00
 Coeff-Com: -0.932D+00 0.172D+01
 Coeff:     -0.214D-07-0.105D-05 0.129D-05 0.303D-05-0.774D-05 0.800D-05
 Coeff:     -0.413D-05-0.604D-07-0.396D-05 0.186D-03-0.839D-03 0.148D-02
 Coeff:      0.772D-04-0.764D-02 0.256D-01-0.495D-01 0.188D-01 0.223D+00
 Coeff:     -0.932D+00 0.172D+01
 Gap=     0.156 Goal=   None    Shift=    0.000
 RMSDP=3.39D-08 MaxDP=3.07D-07 DE=-3.30D-12 OVMax= 6.59D-07

 Cycle  22  Pass 1  IDiag  3:
 E= 0.805324166074229     Delta-E=       -0.000000000001 Rises=F Damp=F
 DIIS: error= 7.56D-09 at cycle  22 NSaved=  20.
 NSaved=20 IEnMin=20 EnMin= 0.805324166074229     IErMin=20 ErrMin= 7.56D-09
 ErrMax= 7.56D-09  0.00D+00 EMaxC= 1.00D-01 BMatC= 4.95D-15 BMatP= 3.11D-14
 IDIUse=1 WtCom= 1.00D+00 WtEn= 0.00D+00
 Large coefficients: NSaved= 20 BigCof=    0.00 CofMax=   10.00 Det=-1.43D-15
 Inversion failed.  Reducing to 19 matrices.
 Large coefficients: NSaved= 19 BigCof=    0.00 CofMax=   10.00 Det=-1.83D-15
 Inversion failed.  Reducing to 18 matrices.
 Large coefficients: NSaved= 18 BigCof=    0.00 CofMax=   10.00 Det=-1.83D-15
 Inversion failed.  Reducing to 17 matrices.
 Large coefficients: NSaved= 17 BigCof=    0.00 CofMax=   10.00 Det=-1.85D-15
 Inversion failed.  Reducing to 16 matrices.
 Large coefficients: NSaved= 16 BigCof=    0.00 CofMax=   10.00 Det=-1.89D-15
 Inversion failed.  Reducing to 15 matrices.
 Coeff-Com:  0.768D-06-0.527D-05 0.440D-05-0.237D-04 0.187D-03-0.598D-03
 Coeff-Com:  0.908D-03 0.223D-03-0.663D-02 0.240D-01-0.491D-01 0.448D-01
 Coeff-Com:  0.141D+00-0.746D+00 0.159D+01
 Coeff:      0.768D-06-0.527D-05 0.440D-05-0.237D-04 0.187D-03-0.598D-03
 Coeff:      0.908D-03 0.223D-03-0.663D-02 0.240D-01-0.491D-01 0.448D-01
 Coeff:      0.141D+00-0.746D+00 0.159D+01
 Gap=     0.156 Goal=   None    Shift=    0.000
 RMSDP=1.36D-08 MaxDP=1.08D-07 DE=-5.68D-13 OVMax= 2.98D-07

 Cycle  23  Pass 1  IDiag  3:
 E= 0.805324166074286     Delta-E=        0.000000000000 Rises=F Damp=F
 DIIS: error= 4.65D-09 at cycle  23 NSaved=  16.
 NSaved=16 IEnMin=15 EnMin= 0.805324166074229     IErMin=16 ErrMin= 4.65D-09
 ErrMax= 4.65D-09  0.00D+00 EMaxC= 1.00D-01 BMatC= 1.15D-15 BMatP= 4.95D-15
 IDIUse=1 WtCom= 1.00D+00 WtEn= 0.00D+00
 Large coefficients: NSaved= 16 BigCof=    0.00 CofMax=   10.00 Det=-2.60D-16
 Inversion failed.  Reducing to 15 matrices.
 Coeff-Com:  0.224D-05-0.746D-05 0.323D-04-0.140D-03 0.403D-03-0.589D-03
 Coeff-Com: -0.950D-04 0.328D-02-0.118D-01 0.255D-01-0.349D-01-0.196D-01
 Coeff-Com:  0.291D+00-0.105D+01 0.180D+01
 Coeff:      0.224D-05-0.746D-05 0.323D-04-0.140D-03 0.403D-03-0.589D-03
 Coeff:     -0.950D-04 0.328D-02-0.118D-01 0.255D-01-0.349D-01-0.196D-01
 Coeff:      0.291D+00-0.105D+01 0.180D+01
 Gap=     0.156 Goal=   None    Shift=    0.000
 RMSDP=7.05D-09 MaxDP=7.30D-08 DE= 5.68D-14 OVMax= 1.63D-07

 Cycle  24  Pass 2  IDiag  1:
 SCF Done:  E(RPM6) =  0.805324166074     A.U. after   24 cycles
            NFock= 23  Conv=0.70D-08     -V/T= 1.0059
 KE=-1.366790075872D+02 PE=-5.942547676440D+02 EE= 3.376885547793D+02
 Leave Link  502 at Wed Jan 12 18:27:40 2022, MaxMem=   402653184 cpu:             173.1 elap:              25.6
 (Enter /work/01114/jfonner/frontera/gaussian/16rC.01/g16/l601.exe)
 Copying SCF densities to generalized density rwf, IOpCl= 0 IROHF=0.

 **********************************************************************

            Population analysis using the SCF Density.

 **********************************************************************

 Alpha  occ. eigenvalues --   -1.43414  -1.41627  -1.33532  -1.33281  -1.32136
 Alpha  occ. eigenvalues --   -1.23447  -1.19416  -1.13606  -1.06770  -0.98631
 Alpha  occ. eigenvalues --   -0.95677  -0.87676  -0.84147  -0.81893  -0.80958
 Alpha  occ. eigenvalues --   -0.80731  -0.77735  -0.75887  -0.74061  -0.71409
 Alpha  occ. eigenvalues --   -0.69916  -0.68469  -0.66580  -0.65159  -0.63504
 Alpha  occ. eigenvalues --   -0.61232  -0.60576  -0.57643  -0.57554  -0.52853
 Alpha  occ. eigenvalues --   -0.49821  -0.48490
 Alpha virt. eigenvalues --   -0.33052  -0.27626  -0.27035  -0.22595  -0.19074
 Alpha virt. eigenvalues --   -0.18092  -0.17225  -0.14471  -0.13344  -0.11251
 Alpha virt. eigenvalues --   -0.07656  -0.06726  -0.06448  -0.06008  -0.04120
 Alpha virt. eigenvalues --   -0.04065  -0.03773  -0.02734  -0.02344  -0.01961
 Alpha virt. eigenvalues --    0.04165   0.05448   0.07173   0.08736
          Condensed to atoms (all electrons):
               1          2          3          4          5          6
     1  C    3.536559   0.000000   0.000000   0.000000   0.000000   0.000000
     2  O    0.000000   6.496415   0.000000   0.000000   0.000000   0.000000
     3  N    0.000000   0.000000   5.420211   0.000000   0.000000   0.000000
     4  C    0.000000   0.000000   0.000000   3.912768   0.000000   0.000000
     5  C    0.000000   0.000000   0.000000   0.000000   3.557769   0.000000
     6  O    0.000000   0.000000   0.000000   0.000000   0.000000   6.312769
     7  N    0.000000   0.000000   0.000000   0.000000   0.000000   0.000000
     8  C    0.000000   0.000000   0.000000   0.000000   0.000000   0.000000
     9  C    0.000000   0.000000   0.000000   0.000000   0.000000   0.000000
    10  C    0.000000   0.000000   0.000000   0.000000   0.000000   0.000000
    11  O    0.000000   0.000000   0.000000   0.000000   0.000000   0.000000
    12  N    0.000000   0.000000   0.000000   0.000000   0.000000   0.000000
    13  C    0.000000   0.000000   0.000000   0.000000   0.000000   0.000000
    14  H    0.000000   0.000000   0.000000   0.000000   0.000000   0.000000
    15  H    0.000000   0.000000   0.000000   0.000000   0.000000   0.000000
    16  H    0.000000   0.000000   0.000000   0.000000   0.000000   0.000000
    17  H    0.000000   0.000000   0.000000   0.000000   0.000000   0.000000
               7          8          9         10         11         12
     1  C    0.000000   0.000000   0.000000   0.000000   0.000000   0.000000
     2  O    0.000000   0.000000   0.000000   0.000000   0.000000   0.000000
     3  N    0.000000   0.000000   0.000000   0.000000   0.000000   0.000000
     4  C    0.000000   0.000000   0.000000   0.000000   0.000000   0.000000
     5  C    0.000000   0.000000   0.000000   0.000000   0.000000   0.000000
     6  O    0.000000   0.000000   0.000000   0.000000   0.000000   0.000000
     7  N    5.300467   0.000000   0.000000   0.000000   0.000000   0.000000
     8  C    0.000000   3.423363   0.000000   0.000000   0.000000   0.000000
     9  C    0.000000   0.000000   3.660736   0.000000   0.000000   0.000000
    10  C    0.000000   0.000000   0.000000   3.575509   0.000000   0.000000
    11  O    0.000000   0.000000   0.000000   0.000000   6.291147   0.000000
    12  N    0.000000   0.000000   0.000000   0.000000   0.000000   5.443463
    13  C    0.000000   0.000000   0.000000   0.000000   0.000000   0.000000
    14  H    0.000000   0.000000   0.000000   0.000000   0.000000   0.000000
    15  H    0.000000   0.000000   0.000000   0.000000   0.000000   0.000000
    16  H    0.000000   0.000000   0.000000   0.000000   0.000000   0.000000
    17  H    0.000000   0.000000   0.000000   0.000000   0.000000   0.000000
              13         14         15         16         17
     1  C    0.000000   0.000000   0.000000   0.000000   0.000000
     2  O    0.000000   0.000000   0.000000   0.000000   0.000000
     3  N    0.000000   0.000000   0.000000   0.000000   0.000000
     4  C    0.000000   0.000000   0.000000   0.000000   0.000000
     5  C    0.000000   0.000000   0.000000   0.000000   0.000000
     6  O    0.000000   0.000000   0.000000   0.000000   0.000000
     7  N    0.000000   0.000000   0.000000   0.000000   0.000000
     8  C    0.000000   0.000000   0.000000   0.000000   0.000000
     9  C    0.000000   0.000000   0.000000   0.000000   0.000000
    10  C    0.000000   0.000000   0.000000   0.000000   0.000000
    11  O    0.000000   0.000000   0.000000   0.000000   0.000000
    12  N    0.000000   0.000000   0.000000   0.000000   0.000000
    13  C    3.620390   0.000000   0.000000   0.000000   0.000000
    14  H    0.000000   0.852585   0.000000   0.000000   0.000000
    15  H    0.000000   0.000000   0.946541   0.000000   0.000000
    16  H    0.000000   0.000000   0.000000   0.827478   0.000000
    17  H    0.000000   0.000000   0.000000   0.000000   0.821829
 Mulliken charges:
               1
     1  C    0.463441
     2  O   -0.496415
     3  N   -0.420211
     4  C    0.087232
     5  C    0.442231
     6  O   -0.312769
     7  N   -0.300467
     8  C    0.576637
     9  C    0.339264
    10  C    0.424491
    11  O   -0.291147
    12  N   -0.443463
    13  C    0.379610
    14  H    0.147415
    15  H    0.053459
    16  H    0.172522
    17  H    0.178171
 Sum of Mulliken charges =   1.00000
 Mulliken charges with hydrogens summed into heavy atoms:
               1
     1  C    0.610855
     2  O   -0.496415
     3  N   -0.420211
     4  C    0.087232
     5  C    0.442231
     6  O   -0.312769
     7  N   -0.300467
     8  C    0.576637
     9  C    0.392723
    10  C    0.424491
    11  O   -0.291147
    12  N   -0.443463
    13  C    0.730302
 Charge=              1.0000 electrons
 Dipole moment (field-independent basis, Debye):
    X=             19.1453    Y=              1.2438    Z=             52.4305  Tot=             55.8305
 N-N= 3.940505446180D+02 E-N=-5.942547676944D+02  KE=-1.366790075872D+02
 Leave Link  601 at Wed Jan 12 18:27:41 2022, MaxMem=   402653184 cpu:               1.9 elap:               0.5
 (Enter /work/01114/jfonner/frontera/gaussian/16rC.01/g16/l607.exe)
 ******************************Gaussian NBO Version 3.1******************************
             N A T U R A L   A T O M I C   O R B I T A L   A N D
          N A T U R A L   B O N D   O R B I T A L   A N A L Y S I S
 ******************************Gaussian NBO Version 3.1******************************
       /RESON  / : Allow strongly delocalized NBO set

 Analyzing the SCF density

 Job title: Atom number=17                                                  

 Storage needed:     10348 in NPA ( 402651603 available)
 GSVD:  LWork=       -3584 too small for GESVD, short by       16520 words or       16520 for optimal perf.


 NATURAL POPULATIONS:  Natural atomic orbital occupancies 
                                                          
   NAO  Atom  No  lang   Type(AO)    Occupancy      Energy
 ----------------------------------------------------------
     1    C    1  S      Val( 2S)     1.08019      -0.59241
     2    C    1  px     Val( 2p)     0.92726      -0.33962
     3    C    1  py     Val( 2p)     0.81227      -0.35900
     4    C    1  pz     Val( 2p)     0.71684      -0.28493
 
     5    O    2  S      Val( 2S)     1.83485      -0.98055
     6    O    2  px     Val( 2p)     1.84617      -0.51446
     7    O    2  py     Val( 2p)     1.31037      -0.49619
     8    O    2  pz     Val( 2p)     1.50501      -0.47870
 
     9    N    3  S      Val( 2S)     1.68730      -0.91864
    10    N    3  px     Val( 2p)     1.05733      -0.42535
    11    N    3  py     Val( 2p)     1.07165      -0.39897
    12    N    3  pz     Val( 2p)     1.60393      -0.46412
 
    13    C    4  S      Val( 2S)     1.27699      -0.66652
    14    C    4  px     Val( 2p)     0.97819      -0.40398
    15    C    4  py     Val( 2p)     0.75789      -0.34121
    16    C    4  pz     Val( 2p)     0.89969      -0.38775
 
    17    C    5  S      Val( 2S)     1.10835      -0.70946
    18    C    5  px     Val( 2p)     0.78281      -0.40947
    19    C    5  py     Val( 2p)     0.83569      -0.46705
    20    C    5  pz     Val( 2p)     0.83092      -0.44673
 
    21    O    6  S      Val( 2S)     1.87558      -1.10844
    22    O    6  px     Val( 2p)     1.52380      -0.56599
    23    O    6  py     Val( 2p)     1.23682      -0.57145
    24    O    6  pz     Val( 2p)     1.67657      -0.58441
 
    25    N    7  S      Val( 2S)     1.69337      -1.02484
    26    N    7  px     Val( 2p)     1.04710      -0.50230
    27    N    7  py     Val( 2p)     1.36086      -0.55189
    28    N    7  pz     Val( 2p)     1.19914      -0.55326
 
    29    C    8  S      Val( 2S)     1.48413      -0.80681
    30    C    8  px     Val( 2p)     0.69102      -0.39878
    31    C    8  py     Val( 2p)     0.40675      -0.35399
    32    C    8  pz     Val( 2p)     0.84146      -0.43786
 
    33    C    9  S      Val( 2S)     1.58756      -0.70843
    34    C    9  px     Val( 2p)     0.88378      -0.31576
    35    C    9  py     Val( 2p)     0.57850      -0.26735
    36    C    9  pz     Val( 2p)     0.61089      -0.28779
 
    37    C   10  S      Val( 2S)     1.05218      -0.72477
    38    C   10  px     Val( 2p)     0.84026      -0.45525
    39    C   10  py     Val( 2p)     0.82216      -0.49700
    40    C   10  pz     Val( 2p)     0.86091      -0.46712
 
    41    O   11  S      Val( 2S)     1.87043      -1.11548
    42    O   11  px     Val( 2p)     1.65051      -0.58602
    43    O   11  py     Val( 2p)     1.18817      -0.57482
    44    O   11  pz     Val( 2p)     1.58203      -0.57963
 
    45    N   12  S      Val( 2S)     1.66893      -1.01254
    46    N   12  px     Val( 2p)     1.34978      -0.53907
    47    N   12  py     Val( 2p)     1.16543      -0.49892
    48    N   12  pz     Val( 2p)     1.25932      -0.52921
 
    49    C   13  S      Val( 2S)     1.22474      -0.71810
    50    C   13  px     Val( 2p)     1.02856      -0.43364
    51    C   13  py     Val( 2p)     0.38683      -0.33031
    52    C   13  pz     Val( 2p)     0.98026      -0.42726
 
    53    H   14  S      Val( 1S)     0.85259      -0.28403
 
    54    H   15  S      Val( 1S)     0.94654      -0.36058
 
    55    H   16  S      Val( 1S)     0.82748      -0.37934
 
    56    H   17  S      Val( 1S)     0.82183      -0.38152

 [ 26 electrons found in the effective core potential]


 Summary of Natural Population Analysis:                  
                                                          
                                       Natural Population 
                Natural  -----------------------------------------------
    Atom  No    Charge         Core      Valence    Rydberg      Total
 -----------------------------------------------------------------------
      C    1    0.46344      2.00000     3.53656    0.00000     5.53656
      O    2   -0.49641      2.00000     6.49641    0.00000     8.49641
      N    3   -0.42021      2.00000     5.42021    0.00000     7.42021
      C    4    0.08723      2.00000     3.91277    0.00000     5.91277
      C    5    0.44223      2.00000     3.55777    0.00000     5.55777
      O    6   -0.31277      2.00000     6.31277    0.00000     8.31277
      N    7   -0.30047      2.00000     5.30047    0.00000     7.30047
      C    8    0.57664      2.00000     3.42336    0.00000     5.42336
      C    9    0.33926      2.00000     3.66074    0.00000     5.66074
      C   10    0.42449      2.00000     3.57551    0.00000     5.57551
      O   11   -0.29115      2.00000     6.29115    0.00000     8.29115
      N   12   -0.44346      2.00000     5.44346    0.00000     7.44346
      C   13    0.37961      2.00000     3.62039    0.00000     5.62039
      H   14    0.14741      0.00000     0.85259    0.00000     0.85259
      H   15    0.05346      0.00000     0.94654    0.00000     0.94654
      H   16    0.17252      0.00000     0.82748    0.00000     0.82748
      H   17    0.17817      0.00000     0.82183    0.00000     0.82183
 =======================================================================
   * Total *    1.00000     26.00000    64.00000    0.00000    90.00000

                                 Natural Population      
 --------------------------------------------------------
   Effective Core            26.00000
   Valence                   64.00000 (100.0000% of  64)
   Natural Minimal Basis     90.00000 (100.0000% of  90)
   Natural Rydberg Basis      0.00000 (  0.0000% of  90)
 --------------------------------------------------------

    Atom  No          Natural Electron Configuration
 ----------------------------------------------------------------------------
      C    1      [core]2S( 1.08)2p( 2.46)
      O    2      [core]2S( 1.83)2p( 4.66)
      N    3      [core]2S( 1.69)2p( 3.73)
      C    4      [core]2S( 1.28)2p( 2.64)
      C    5      [core]2S( 1.11)2p( 2.45)
      O    6      [core]2S( 1.88)2p( 4.44)
      N    7      [core]2S( 1.69)2p( 3.61)
      C    8      [core]2S( 1.48)2p( 1.94)
      C    9      [core]2S( 1.59)2p( 2.07)
      C   10      [core]2S( 1.05)2p( 2.52)
      O   11      [core]2S( 1.87)2p( 4.42)
      N   12      [core]2S( 1.67)2p( 3.77)
      C   13      [core]2S( 1.22)2p( 2.40)
      H   14            1S( 0.85)
      H   15            1S( 0.95)
      H   16            1S( 0.83)
      H   17            1S( 0.82)


 NBO analysis skipped by request.
 Leave Link  607 at Wed Jan 12 18:27:45 2022, MaxMem=   402653184 cpu:              25.7 elap:               3.8
 (Enter /work/01114/jfonner/frontera/gaussian/16rC.01/g16/l9999.exe)
 Unable to Open any file for archive entry.
 1\1\GINC-C208-026\SP\RPM6\ZDO\C7H4N3O3(1+)\SA748948\12-Jan-2022\0\\#p 
 pm6 pop=npa nosymm\\Atom number=17\\1,1\C,0,0.8400878,-0.8540839,6.792
 0077\O,0,1.02699976,-2.02199415,6.72004467\N,0,1.81009405,0.00199386,7
 .02302595\C,0,3.19101893,-0.42899749,7.10100079\C,0,3.91096904,0.25811
 292,8.2290166\O,0,4.06398892,1.47797151,8.22797878\N,0,4.36398407,-0.5
 2686395,9.18903366\C,0,5.06702545,0.02000737,10.32597689\C,0,3.8710029
 ,-0.10297749,5.74803396\C,0,4.27105856,0.81681072,11.29599854\O,0,4.35
 89401,2.03298899,11.36695817\N,0,3.49194716,0.10405312,12.07291507\C,0
 ,2.58488259,0.67696031,13.0850053\H,0,-0.15532118,-0.4712761,6.7052946
 7\H,0,4.86072583,-0.49145379,5.62788954\H,0,2.88847392,0.22276827,14.0
 0502807\H,0,1.55907152,0.43277791,12.90338313\\Version=ES64L-G16RevC.0
 1\HF=0.8053242\RMSD=7.047e-09\Dipole=1.4524508,0.2548472,3.5078485\PG=
 C01 [X(C7H4N3O3)]\\@
 The archive entry for this job was punched.


 NOTHING PUZZLES ME MORE THAN TIME AND SPACE; AND YET NOTHING TROUBLES ME LESS
                                                          -- CHARLES LAMB (1810)
 Job cpu time:       0 days  0 hours  4 minutes 17.7 seconds.
 Elapsed time:       0 days  0 hours  0 minutes 37.9 seconds.
 File lengths (MBytes):  RWF=      6 Int=      0 D2E=      0 Chk=      2 Scr=      1
 Normal termination of Gaussian 16 at Wed Jan 12 18:27:46 2022.
