Atom number=26                                                          
SP        RPM6                                                        ZDO                 
Number of atoms                            I               26
Info1-9                                    I   N=           9
          36          35           0           0           0         110
           1           8        2302
Full Title                                 C   N=           2
Atom number=26          
Route                                      C   N=           2
#p pm6 pop=npa nosymm   
Charge                                     I                1
Multiplicity                               I                1
Number of electrons                        I              104
Number of alpha electrons                  I               52
Number of beta electrons                   I               52
Number of basis functions                  I               89
Number of independent functions            I               89
Number of point charges in /Mol/           I                0
Number of translation vectors              I                0
Atomic numbers                             I   N=          26
           6           8           7           6           6           8
           7           6           6           8           6           8
           7           6           6           8           7           6
           6           8           6           1           1           1
           1           1
Nuclear charges                            R   N=          26
  4.00000000E+00  6.00000000E+00  5.00000000E+00  4.00000000E+00  4.00000000E+00
  6.00000000E+00  5.00000000E+00  4.00000000E+00  4.00000000E+00  6.00000000E+00
  4.00000000E+00  6.00000000E+00  5.00000000E+00  4.00000000E+00  4.00000000E+00
  6.00000000E+00  5.00000000E+00  4.00000000E+00  4.00000000E+00  6.00000000E+00
  4.00000000E+00  1.00000000E+00  1.00000000E+00  1.00000000E+00  1.00000000E+00
  1.00000000E+00
Current cartesian coordinates              R   N=          78
  5.68047591E+00  8.87681084E-02  2.71385860E+01  5.58975152E+00 -2.20906837E+00
  2.74293797E+01  6.57805899E+00  1.67620554E+00  2.88409868E+01  7.86695423E+00
  7.40639415E-01  3.10706832E+01  6.47047624E+00  1.82345511E+00  3.33176261E+01
  5.92614845E+00  3.98720830E+00  3.32818134E+01  5.99610018E+00  2.43759496E-01
  3.52377837E+01  4.83576497E+00  9.75225179E-01  3.76114100E+01  1.07487510E+01
  1.41742810E+00  3.09708628E+01  1.18371698E+01  2.45569022E-01  2.87917712E+01
  6.33041906E+00 -2.30612369E-01  3.97107789E+01  6.36085036E+00 -2.53051519E+00
  3.99488315E+01  7.68551772E+00  1.30019429E+00  4.11354011E+01  9.23705307E+00
  3.87541934E-01  4.31820347E+01  8.22046388E+00  1.45329157E+00  4.56823399E+01
  7.86327031E+00  3.74374960E+00  4.58617210E+01  7.68189577E+00 -2.26645493E-01
  4.75283388E+01  7.02990906E+00  5.91560471E-01  5.01060510E+01  2.15040300E+00
 -3.97917362E-02  3.77624973E+01  7.42665334E-01  7.44636810E-01  3.55722173E+01
  9.18453667E-01  9.46840358E-01  3.99998135E+01  5.10677144E+00  9.47066672E-01
  2.53999949E+01  1.17421496E+01  6.84489586E-01  3.25722598E+01  1.11691927E+01
  9.23562788E-01  4.29212087E+01  8.64375036E+00  3.62714372E-01  5.13025701E+01
  5.41257934E+00 -3.82008779E-01  5.08305643E+01
Number of symbols in /Mol/                 I                0
Int Atom Types                             I   N=          26
           0           0           0           0           0           0
           0           0           0           0           0           0
           0           0           0           0           0           0
           0           0           0           0           0           0
           0           0
Force Field                                I                0
Atom Types                                 C   N=          26
                                                            
                                                            
                                                            
                                                            
                                                            
            
MM charges                                 R   N=          26
  0.00000000E+00  0.00000000E+00  0.00000000E+00  0.00000000E+00  0.00000000E+00
  0.00000000E+00  0.00000000E+00  0.00000000E+00  0.00000000E+00  0.00000000E+00
  0.00000000E+00  0.00000000E+00  0.00000000E+00  0.00000000E+00  0.00000000E+00
  0.00000000E+00  0.00000000E+00  0.00000000E+00  0.00000000E+00  0.00000000E+00
  0.00000000E+00  0.00000000E+00  0.00000000E+00  0.00000000E+00  0.00000000E+00
  0.00000000E+00
Integer atomic weights                     I   N=          26
          12          16          14          12          12          16
          14          12          12          16          12          16
          14          12          12          16          14          12
          12          16          12           1           1           1
           1           1
Real atomic weights                        R   N=          26
  1.20000000E+01  1.59949146E+01  1.40030740E+01  1.20000000E+01  1.20000000E+01
  1.59949146E+01  1.40030740E+01  1.20000000E+01  1.20000000E+01  1.59949146E+01
  1.20000000E+01  1.59949146E+01  1.40030740E+01  1.20000000E+01  1.20000000E+01
  1.59949146E+01  1.40030740E+01  1.20000000E+01  1.20000000E+01  1.59949146E+01
  1.20000000E+01  1.00782504E+00  1.00782504E+00  1.00782504E+00  1.00782504E+00
  1.00782504E+00
Atom fragment info                         I   N=          26
           0           0           0           0           0           0
           0           0           0           0           0           0
           0           0           0           0           0           0
           0           0           0           0           0           0
           0           0
Atom residue num                           I   N=          26
           0           0           0           0           0           0
           0           0           0           0           0           0
           0           0           0           0           0           0
           0           0           0           0           0           0
           0           0
Nuclear spins                              I   N=          26
           0           0           2           0           0           0
           2           0           0           0           0           0
           2           0           0           0           2           0
           0           0           0           1           1           1
           1           1
Nuclear ZEff                               R   N=          26
 -3.90000000E+00 -6.00000000E+00 -4.90000000E+00 -3.90000000E+00 -3.90000000E+00
 -6.00000000E+00 -4.90000000E+00 -3.90000000E+00 -3.90000000E+00 -6.00000000E+00
 -3.90000000E+00 -6.00000000E+00 -4.90000000E+00 -3.90000000E+00 -3.90000000E+00
 -6.00000000E+00 -4.90000000E+00 -3.90000000E+00 -3.90000000E+00 -6.00000000E+00
 -3.90000000E+00 -1.00000000E+00 -1.00000000E+00 -1.00000000E+00 -1.00000000E+00
 -1.00000000E+00
Nuclear ZNuc                               R   N=          26
  6.00000000E+00  8.00000000E+00  7.00000000E+00  6.00000000E+00  6.00000000E+00
  8.00000000E+00  7.00000000E+00  6.00000000E+00  6.00000000E+00  8.00000000E+00
  6.00000000E+00  8.00000000E+00  7.00000000E+00  6.00000000E+00  6.00000000E+00
  8.00000000E+00  7.00000000E+00  6.00000000E+00  6.00000000E+00  8.00000000E+00
  6.00000000E+00  1.00000000E+00  1.00000000E+00  1.00000000E+00  1.00000000E+00
  1.00000000E+00
Nuclear QMom                               R   N=          26
  0.00000000E+00  0.00000000E+00  2.04400000E+00  0.00000000E+00  0.00000000E+00
  0.00000000E+00  2.04400000E+00  0.00000000E+00  0.00000000E+00  0.00000000E+00
  0.00000000E+00  0.00000000E+00  2.04400000E+00  0.00000000E+00  0.00000000E+00
  0.00000000E+00  2.04400000E+00  0.00000000E+00  0.00000000E+00  0.00000000E+00
  0.00000000E+00  0.00000000E+00  0.00000000E+00  0.00000000E+00  0.00000000E+00
  0.00000000E+00
Nuclear GFac                               R   N=          26
  0.00000000E+00  0.00000000E+00  4.03761000E-01  0.00000000E+00  0.00000000E+00
  0.00000000E+00  4.03761000E-01  0.00000000E+00  0.00000000E+00  0.00000000E+00
  0.00000000E+00  0.00000000E+00  4.03761000E-01  0.00000000E+00  0.00000000E+00
  0.00000000E+00  4.03761000E-01  0.00000000E+00  0.00000000E+00  0.00000000E+00
  0.00000000E+00  2.79284600E+00  2.79284600E+00  2.79284600E+00  2.79284600E+00
  2.79284600E+00
MicOpt                                     I   N=          26
          -1          -1          -1          -1          -1          -1
          -1          -1          -1          -1          -1          -1
          -1          -1          -1          -1          -1          -1
          -1          -1          -1          -1          -1          -1
          -1          -1
Number of residues                         I                0
Number of secondary structures             I                0
Number of contracted shells                I               26
Number of primitive shells                 I              156
Pure/Cartesian d shells                    I                0
Pure/Cartesian f shells                    I                0
Highest angular momentum                   I                1
Largest degree of contraction              I                6
Shell types                                I   N=          26
          -1          -1          -1          -1          -1          -1
          -1          -1          -1          -1          -1          -1
          -1          -1          -1          -1          -1          -1
          -1          -1          -1           0           0           0
           0           0
Number of primitives per shell             I   N=          26
           6           6           6           6           6           6
           6           6           6           6           6           6
           6           6           6           6           6           6
           6           6           6           6           6           6
           6           6
Shell to atom map                          I   N=          26
           1           2           3           4           5           6
           7           8           9          10          11          12
          13          14          15          16          17          18
          19          20          21          22          23          24
          25          26
Primitive exponents                        R   N=         156
  1.14476344E+01  3.29633588E+00  1.29653143E+00  5.92558930E-01  2.94896438E-01
  1.51447622E-01  8.02643074E+01  2.31120341E+01  9.09054165E+00  4.15468650E+00
  2.06764625E+00  1.06186467E+00  1.54719623E+01  4.45513742E+00  1.75231709E+00
  8.00868468E-01  3.98565014E-01  2.04687870E-01  1.14476344E+01  3.29633588E+00
  1.29653143E+00  5.92558930E-01  2.94896438E-01  1.51447622E-01  1.14476344E+01
  3.29633588E+00  1.29653143E+00  5.92558930E-01  2.94896438E-01  1.51447622E-01
  8.02643074E+01  2.31120341E+01  9.09054165E+00  4.15468650E+00  2.06764625E+00
  1.06186467E+00  1.54719623E+01  4.45513742E+00  1.75231709E+00  8.00868468E-01
  3.98565014E-01  2.04687870E-01  1.14476344E+01  3.29633588E+00  1.29653143E+00
  5.92558930E-01  2.94896438E-01  1.51447622E-01  1.14476344E+01  3.29633588E+00
  1.29653143E+00  5.92558930E-01  2.94896438E-01  1.51447622E-01  8.02643074E+01
  2.31120341E+01  9.09054165E+00  4.15468650E+00  2.06764625E+00  1.06186467E+00
  1.14476344E+01  3.29633588E+00  1.29653143E+00  5.92558930E-01  2.94896438E-01
  1.51447622E-01  8.02643074E+01  2.31120341E+01  9.09054165E+00  4.15468650E+00
  2.06764625E+00  1.06186467E+00  1.54719623E+01  4.45513742E+00  1.75231709E+00
  8.00868468E-01  3.98565014E-01  2.04687870E-01  1.14476344E+01  3.29633588E+00
  1.29653143E+00  5.92558930E-01  2.94896438E-01  1.51447622E-01  1.14476344E+01
  3.29633588E+00  1.29653143E+00  5.92558930E-01  2.94896438E-01  1.51447622E-01
  8.02643074E+01  2.31120341E+01  9.09054165E+00  4.15468650E+00  2.06764625E+00
  1.06186467E+00  1.54719623E+01  4.45513742E+00  1.75231709E+00  8.00868468E-01
  3.98565014E-01  2.04687870E-01  1.14476344E+01  3.29633588E+00  1.29653143E+00
  5.92558930E-01  2.94896438E-01  1.51447622E-01  1.14476344E+01  3.29633588E+00
  1.29653143E+00  5.92558930E-01  2.94896438E-01  1.51447622E-01  8.02643074E+01
  2.31120341E+01  9.09054165E+00  4.15468650E+00  2.06764625E+00  1.06186467E+00
  1.14476344E+01  3.29633588E+00  1.29653143E+00  5.92558930E-01  2.94896438E-01
  1.51447622E-01  4.39461478E+00  1.26542531E+00  4.97723458E-01  2.27476537E-01
  1.13207340E-01  5.81389949E-02  4.39461478E+00  1.26542531E+00  4.97723458E-01
  2.27476537E-01  1.13207340E-01  5.81389949E-02  4.39461478E+00  1.26542531E+00
  4.97723458E-01  2.27476537E-01  1.13207340E-01  5.81389949E-02  4.39461478E+00
  1.26542531E+00  4.97723458E-01  2.27476537E-01  1.13207340E-01  5.81389949E-02
  4.39461478E+00  1.26542531E+00  4.97723458E-01  2.27476537E-01  1.13207340E-01
  5.81389949E-02
Contraction coefficients                   R   N=         156
 -9.73739553E-03 -7.26587678E-02 -1.71615520E-01  1.28977624E-01  7.28861451E-01
  3.01331742E-01 -9.73739553E-03 -7.26587678E-02 -1.71615520E-01  1.28977624E-01
  7.28861451E-01  3.01331742E-01 -9.73739553E-03 -7.26587678E-02 -1.71615520E-01
  1.28977624E-01  7.28861451E-01  3.01331742E-01 -9.73739553E-03 -7.26587678E-02
 -1.71615520E-01  1.28977624E-01  7.28861451E-01  3.01331742E-01 -9.73739553E-03
 -7.26587678E-02 -1.71615520E-01  1.28977624E-01  7.28861451E-01  3.01331742E-01
 -9.73739553E-03 -7.26587678E-02 -1.71615520E-01  1.28977624E-01  7.28861451E-01
  3.01331742E-01 -9.73739553E-03 -7.26587678E-02 -1.71615520E-01  1.28977624E-01
  7.28861451E-01  3.01331742E-01 -9.73739553E-03 -7.26587678E-02 -1.71615520E-01
  1.28977624E-01  7.28861451E-01  3.01331742E-01 -9.73739553E-03 -7.26587678E-02
 -1.71615520E-01  1.28977624E-01  7.28861451E-01  3.01331742E-01 -9.73739553E-03
 -7.26587678E-02 -1.71615520E-01  1.28977624E-01  7.28861451E-01  3.01331742E-01
 -9.73739553E-03 -7.26587678E-02 -1.71615520E-01  1.28977624E-01  7.28861451E-01
  3.01331742E-01 -9.73739553E-03 -7.26587678E-02 -1.71615520E-01  1.28977624E-01
  7.28861451E-01  3.01331742E-01 -9.73739553E-03 -7.26587678E-02 -1.71615520E-01
  1.28977624E-01  7.28861451E-01  3.01331742E-01 -9.73739553E-03 -7.26587678E-02
 -1.71615520E-01  1.28977624E-01  7.28861451E-01  3.01331742E-01 -9.73739553E-03
 -7.26587678E-02 -1.71615520E-01  1.28977624E-01  7.28861451E-01  3.01331742E-01
 -9.73739553E-03 -7.26587678E-02 -1.71615520E-01  1.28977624E-01  7.28861451E-01
  3.01331742E-01 -9.73739553E-03 -7.26587678E-02 -1.71615520E-01  1.28977624E-01
  7.28861451E-01  3.01331742E-01 -9.73739553E-03 -7.26587678E-02 -1.71615520E-01
  1.28977624E-01  7.28861451E-01  3.01331742E-01 -9.73739553E-03 -7.26587678E-02
 -1.71615520E-01  1.28977624E-01  7.28861451E-01  3.01331742E-01 -9.73739553E-03
 -7.26587678E-02 -1.71615520E-01  1.28977624E-01  7.28861451E-01  3.01331742E-01
 -9.73739553E-03 -7.26587678E-02 -1.71615520E-01  1.28977624E-01  7.28861451E-01
  3.01331742E-01 -9.73739553E-03 -7.26587678E-02 -1.71615520E-01  1.28977624E-01
  7.28861451E-01  3.01331742E-01 -9.73739553E-03 -7.26587678E-02 -1.71615520E-01
  1.28977624E-01  7.28861451E-01  3.01331742E-01 -9.73739553E-03 -7.26587678E-02
 -1.71615520E-01  1.28977624E-01  7.28861451E-01  3.01331742E-01 -9.73739553E-03
 -7.26587678E-02 -1.71615520E-01  1.28977624E-01  7.28861451E-01  3.01331742E-01
 -9.73739553E-03 -7.26587678E-02 -1.71615520E-01  1.28977624E-01  7.28861451E-01
  3.01331742E-01
P(S=P) Contraction coefficients            R   N=         156
 -8.10494336E-03 -1.71547892E-02  7.36978576E-02  3.96514999E-01  4.97808488E-01
  1.17482582E-01 -8.10494336E-03 -1.71547892E-02  7.36978576E-02  3.96514999E-01
  4.97808488E-01  1.17482582E-01 -8.10494336E-03 -1.71547892E-02  7.36978576E-02
  3.96514999E-01  4.97808488E-01  1.17482582E-01 -8.10494336E-03 -1.71547892E-02
  7.36978576E-02  3.96514999E-01  4.97808488E-01  1.17482582E-01 -8.10494336E-03
 -1.71547892E-02  7.36978576E-02  3.96514999E-01  4.97808488E-01  1.17482582E-01
 -8.10494336E-03 -1.71547892E-02  7.36978576E-02  3.96514999E-01  4.97808488E-01
  1.17482582E-01 -8.10494336E-03 -1.71547892E-02  7.36978576E-02  3.96514999E-01
  4.97808488E-01  1.17482582E-01 -8.10494336E-03 -1.71547892E-02  7.36978576E-02
  3.96514999E-01  4.97808488E-01  1.17482582E-01 -8.10494336E-03 -1.71547892E-02
  7.36978576E-02  3.96514999E-01  4.97808488E-01  1.17482582E-01 -8.10494336E-03
 -1.71547892E-02  7.36978576E-02  3.96514999E-01  4.97808488E-01  1.17482582E-01
 -8.10494336E-03 -1.71547892E-02  7.36978576E-02  3.96514999E-01  4.97808488E-01
  1.17482582E-01 -8.10494336E-03 -1.71547892E-02  7.36978576E-02  3.96514999E-01
  4.97808488E-01  1.17482582E-01 -8.10494336E-03 -1.71547892E-02  7.36978576E-02
  3.96514999E-01  4.97808488E-01  1.17482582E-01 -8.10494336E-03 -1.71547892E-02
  7.36978576E-02  3.96514999E-01  4.97808488E-01  1.17482582E-01 -8.10494336E-03
 -1.71547892E-02  7.36978576E-02  3.96514999E-01  4.97808488E-01  1.17482582E-01
 -8.10494336E-03 -1.71547892E-02  7.36978576E-02  3.96514999E-01  4.97808488E-01
  1.17482582E-01 -8.10494336E-03 -1.71547892E-02  7.36978576E-02  3.96514999E-01
  4.97808488E-01  1.17482582E-01 -8.10494336E-03 -1.71547892E-02  7.36978576E-02
  3.96514999E-01  4.97808488E-01  1.17482582E-01 -8.10494336E-03 -1.71547892E-02
  7.36978576E-02  3.96514999E-01  4.97808488E-01  1.17482582E-01 -8.10494336E-03
 -1.71547892E-02  7.36978576E-02  3.96514999E-01  4.97808488E-01  1.17482582E-01
 -8.10494336E-03 -1.71547892E-02  7.36978576E-02  3.96514999E-01  4.97808488E-01
  1.17482582E-01  0.00000000E+00  0.00000000E+00  0.00000000E+00  0.00000000E+00
  0.00000000E+00  0.00000000E+00  0.00000000E+00  0.00000000E+00  0.00000000E+00
  0.00000000E+00  0.00000000E+00  0.00000000E+00  0.00000000E+00  0.00000000E+00
  0.00000000E+00  0.00000000E+00  0.00000000E+00  0.00000000E+00  0.00000000E+00
  0.00000000E+00  0.00000000E+00  0.00000000E+00  0.00000000E+00  0.00000000E+00
  0.00000000E+00  0.00000000E+00  0.00000000E+00  0.00000000E+00  0.00000000E+00
  0.00000000E+00
Coordinates of each shell                  R   N=          78
  5.68047591E+00  8.87681084E-02  2.71385860E+01  5.58975152E+00 -2.20906837E+00
  2.74293797E+01  6.57805899E+00  1.67620554E+00  2.88409868E+01  7.86695423E+00
  7.40639415E-01  3.10706832E+01  6.47047624E+00  1.82345511E+00  3.33176261E+01
  5.92614845E+00  3.98720830E+00  3.32818134E+01  5.99610018E+00  2.43759496E-01
  3.52377837E+01  4.83576497E+00  9.75225179E-01  3.76114100E+01  1.07487510E+01
  1.41742810E+00  3.09708628E+01  1.18371698E+01  2.45569022E-01  2.87917712E+01
  6.33041906E+00 -2.30612369E-01  3.97107789E+01  6.36085036E+00 -2.53051519E+00
  3.99488315E+01  7.68551772E+00  1.30019429E+00  4.11354011E+01  9.23705307E+00
  3.87541934E-01  4.31820347E+01  8.22046388E+00  1.45329157E+00  4.56823399E+01
  7.86327031E+00  3.74374960E+00  4.58617210E+01  7.68189577E+00 -2.26645493E-01
  4.75283388E+01  7.02990906E+00  5.91560471E-01  5.01060510E+01  2.15040300E+00
 -3.97917362E-02  3.77624973E+01  7.42665334E-01  7.44636810E-01  3.55722173E+01
  9.18453667E-01  9.46840358E-01  3.99998135E+01  5.10677144E+00  9.47066672E-01
  2.53999949E+01  1.17421496E+01  6.84489586E-01  3.25722598E+01  1.11691927E+01
  9.23562788E-01  4.29212087E+01  8.64375036E+00  3.62714372E-01  5.13025701E+01
  5.41257934E+00 -3.82008779E-01  5.08305643E+01
Num ILSW                                   I              100
ILSW                                       I   N=         100
           0           0           0           0           2           0
           0           0           0           0           0          -1
           5           0           0           0           0           0
           0           0           0           0           0           0
           1           1           0           0           0           0
           0           0      100000           0          -1           0
           0           0           0           0           0           0
           0           0           0          40           0           0
           0 -2000000000           1           0           0           0
           0           0           4          52           0           0
           0           0           0           0           0           0
           0           0           0          26           0           1
           0           0           0           0           0           0
           0           0           0           0           0           0
           0           0           0           0           0           0
           0           0           0           0           0           0
           0           0           0           0
Num RLSW                                   I               52
RLSW                                       R   N=          52
  1.00000000E+00  1.00000000E+00  1.00000000E+00  1.00000000E+00  1.00000000E+00
  0.00000000E+00  0.00000000E+00  1.00000000E+00  0.00000000E+00  0.00000000E+00
  0.00000000E+00  0.00000000E+00  1.00000000E+00  0.00000000E+00  0.00000000E+00
  0.00000000E+00  0.00000000E+00  1.00000000E+00  0.00000000E+00  0.00000000E+00
  0.00000000E+00  0.00000000E+00  1.00000000E+00  0.00000000E+00  0.00000000E+00
  0.00000000E+00  0.00000000E+00  1.00000000E+00  0.00000000E+00  0.00000000E+00
  0.00000000E+00  0.00000000E+00  1.00000000E+00  0.00000000E+00  0.00000000E+00
  0.00000000E+00  0.00000000E+00  0.00000000E+00  1.00000000E+00  1.00000000E+00
  0.00000000E+00  1.00000000E+00  0.00000000E+00  0.00000000E+00  0.00000000E+00
  0.00000000E+00  0.00000000E+00  0.00000000E+00  0.00000000E+00  0.00000000E+00
  0.00000000E+00  0.00000000E+00
MxBond                                     I                3
NBond                                      I   N=          26
           3           1           2           3           3           1
           2           3           3           1           3           1
           2           3           3           1           2           3
           3           1           1           1           1           1
           1           1
IBond                                      I   N=          78
           2           3          22           1           0           0
           1           4           0           3           5           9
           4           6           7           5           0           0
           5           8           0           7          11          19
           4          10          23           9           0           0
           8          12          13          11           0           0
          11          14           0          13          15          24
          14          16          17          15           0           0
          15          18           0          17          25          26
           8          20          21          19           0           0
          19           0           0           1           0           0
           9           0           0          14           0           0
          18           0           0          18           0           0
RBond                                      R   N=          78
  2.00000000E+00  1.50000000E+00  1.00000000E+00  2.00000000E+00  0.00000000E+00
  0.00000000E+00  1.50000000E+00  1.00000000E+00  0.00000000E+00  1.00000000E+00
  1.00000000E+00  1.00000000E+00  1.00000000E+00  2.00000000E+00  1.50000000E+00
  2.00000000E+00  0.00000000E+00  0.00000000E+00  1.50000000E+00  1.00000000E+00
  0.00000000E+00  1.00000000E+00  1.00000000E+00  1.00000000E+00  1.00000000E+00
  1.00000000E+00  1.00000000E+00  1.00000000E+00  0.00000000E+00  0.00000000E+00
  1.00000000E+00  2.00000000E+00  1.50000000E+00  2.00000000E+00  0.00000000E+00
  0.00000000E+00  1.50000000E+00  1.00000000E+00  0.00000000E+00  1.00000000E+00
  1.00000000E+00  1.00000000E+00  1.00000000E+00  2.00000000E+00  1.50000000E+00
  2.00000000E+00  0.00000000E+00  0.00000000E+00  1.50000000E+00  1.00000000E+00
  0.00000000E+00  1.00000000E+00  1.00000000E+00  1.00000000E+00  1.00000000E+00
  1.00000000E+00  1.00000000E+00  1.00000000E+00  0.00000000E+00  0.00000000E+00
  1.00000000E+00  0.00000000E+00  0.00000000E+00  1.00000000E+00  0.00000000E+00
  0.00000000E+00  1.00000000E+00  0.00000000E+00  0.00000000E+00  1.00000000E+00
  0.00000000E+00  0.00000000E+00  1.00000000E+00  0.00000000E+00  0.00000000E+00
  1.00000000E+00  0.00000000E+00  0.00000000E+00
Virial Ratio                               R      1.004310298635683E+00
SCF Energy                                 R      9.914449213777061E-01
Total Energy                               R      9.914449213777061E-01
RMS Density                                R      9.775344242583109E-09
Job Status                                 I                1
Nuclear derivative order                   I                0
External E-field                           R   N=          35
  0.00000000E+00  0.00000000E+00  0.00000000E+00  0.00000000E+00  0.00000000E+00
  0.00000000E+00  0.00000000E+00  0.00000000E+00  0.00000000E+00  0.00000000E+00
  0.00000000E+00  0.00000000E+00  0.00000000E+00  0.00000000E+00  0.00000000E+00
  0.00000000E+00  0.00000000E+00  0.00000000E+00  0.00000000E+00  0.00000000E+00
  0.00000000E+00  0.00000000E+00  0.00000000E+00  0.00000000E+00  0.00000000E+00
  0.00000000E+00  0.00000000E+00  0.00000000E+00  0.00000000E+00  0.00000000E+00
  0.00000000E+00  0.00000000E+00  0.00000000E+00  0.00000000E+00  0.00000000E+00
IOpCl                                      I                0
IROHF                                      I                0
Alpha Orbital Energies                     R   N=          89
 -1.38613923E+00 -1.37374845E+00 -1.33484421E+00 -1.30630193E+00 -1.29031808E+00
 -1.27335671E+00 -1.26776640E+00 -1.24578587E+00 -1.20494352E+00 -1.19523473E+00
 -1.15575975E+00 -1.13794637E+00 -1.10863589E+00 -1.06731109E+00 -1.03461694E+00
 -9.49975305E-01 -9.27746178E-01 -9.12198294E-01 -8.60773885E-01 -8.26287530E-01
 -8.18807290E-01 -7.80460205E-01 -7.72196623E-01 -7.64183562E-01 -7.55308970E-01
 -7.46586795E-01 -7.40449753E-01 -7.35078843E-01 -7.29001013E-01 -7.20866137E-01
 -7.03397797E-01 -6.96084221E-01 -6.89789295E-01 -6.71522731E-01 -6.70292530E-01
 -6.65175040E-01 -6.40822160E-01 -6.30560478E-01 -6.13920724E-01 -5.99458552E-01
 -5.90573734E-01 -5.86245490E-01 -5.67878210E-01 -5.57081356E-01 -5.48483491E-01
 -5.36171214E-01 -5.29527713E-01 -5.20845818E-01 -5.13035823E-01 -4.89602062E-01
 -4.68939980E-01 -4.62788364E-01 -3.32804058E-01 -2.89234084E-01 -2.74296308E-01
 -2.28700167E-01 -2.26381419E-01 -2.17790623E-01 -2.16459831E-01 -1.53428231E-01
 -1.45711805E-01 -1.35611096E-01 -1.28380777E-01 -1.24548239E-01 -1.18615629E-01
 -1.09818069E-01 -9.48798791E-02 -8.97359987E-02 -8.11320656E-02 -5.59860823E-02
 -5.47656933E-02 -4.24937675E-02 -3.98662941E-02 -2.38671933E-02 -1.49104249E-02
 -6.30291715E-03 -1.00789801E-03  2.63068125E-03  3.70804622E-03  1.49070197E-02
  2.31901839E-02  2.49412619E-02  2.51272362E-02  2.98710112E-02  3.61772727E-02
  5.44172819E-02  6.69601730E-02  8.73035965E-02  1.08464449E-01
Alpha MO coefficients                      R   N=        7921
  1.60492646E-02  4.36639923E-03  3.66411225E-03  1.45753087E-02  5.06261269E-03
  1.10432488E-03  6.35388319E-03  2.44974049E-03  6.95581513E-02  6.03348317E-03
 -8.01385217E-03  4.00446040E-02  1.29617970E-01 -5.29779361E-02  6.08272404E-02
  5.96227606E-02  5.14373875E-01 -7.90691165E-02  2.18054243E-01  5.80486316E-02
  5.84979896E-01  7.37870892E-02 -3.13666979E-01  2.14271542E-02  3.35152015E-01
 -1.33000935E-02  1.45088301E-01 -4.92900761E-02  1.53230321E-01  3.27210998E-02
 -1.32005902E-02 -6.87271039E-02  2.69543921E-02 -2.79573228E-02  2.48720034E-03
  1.16421589E-02 -5.68972795E-03 -1.85657772E-03  2.53003921E-04  7.15823712E-05
  1.03982510E-01 -6.64494701E-04 -6.24669814E-03 -1.27548914E-02  6.23480768E-02
 -1.13874157E-03  4.71715872E-02 -8.12762167E-03  6.86660340E-02 -1.26715902E-02
 -2.60670232E-02 -1.37474039E-02  2.09876788E-02 -1.01595438E-02  1.84467876E-03
 -1.18260179E-02  7.01406950E-03 -2.39597435E-04  7.08957767E-05 -4.05832855E-03
  3.44350471E-03  3.74383390E-04 -2.85744980E-03 -1.16293980E-03  1.90993700E-03
  1.28822380E-04  8.72470733E-04 -1.40179079E-03  1.00381760E-04  4.58156332E-05
  7.50076448E-05 -2.99424139E-04  5.93515998E-02  2.99517195E-02  1.76982707E-02
 -1.28700163E-02  2.87720162E-02  1.81292588E-02 -2.24310548E-03  1.30749492E-02
  1.65264743E-02  1.02750687E-02 -2.20354348E-03 -1.14848327E-02  2.55019618E-03
  1.22770153E-02  6.10290602E-03  6.54194751E-06 -8.35997225E-06 -7.45482268E-03
 -1.87021299E-03 -1.16051572E-03 -5.13663607E-03 -2.88144901E-03 -5.38325901E-04
 -3.06269472E-03 -8.04228691E-04 -2.39300403E-02 -2.08248749E-03  3.67326194E-03
 -1.06210963E-02 -3.43185591E-02  1.23781785E-02 -1.57842960E-02 -9.46155639E-03
 -9.80729198E-02  1.19598029E-02 -6.34432947E-02  1.35317050E-02 -1.40447771E-01
 -1.80834199E-02  6.73758665E-02  1.96925250E-03  3.84889481E-02 -1.24929074E-02
 -1.96158726E-02  6.53495690E-02  1.76264166E-01  4.29111735E-02 -6.90325381E-02
  8.26431099E-02 -8.02564198E-03  7.58825786E-03 -4.58015198E-04 -2.08766822E-03
  6.77598738E-04  9.29001471E-04 -3.11980020E-04 -4.08347614E-04  5.30041797E-01
  6.07454269E-02 -9.99478805E-02  9.14157730E-02  4.17738534E-01  8.55909510E-03
  2.77349178E-01 -9.94902878E-03  4.78320561E-01 -5.72546732E-02 -1.80630461E-01
 -3.31857519E-02  1.93719389E-01 -8.15116031E-02  2.42246762E-02 -8.18865756E-02
  9.89936624E-02 -3.11747945E-03  8.86312498E-03 -3.28244972E-02  6.04063911E-02