Atom number=18                                                          
SP        RPM6                                                        ZDO                 
Number of atoms                            I               18
Info1-9                                    I   N=           9
          28          27           0           0           0         110
           1           8        2302
Full Title                                 C   N=           2
Atom number=18          
Route                                      C   N=           2
#p pm6 pop=npa nosymm   
Charge                                     I                4
Multiplicity                               I                1
Number of electrons                        I               68
Number of alpha electrons                  I               34
Number of beta electrons                   I               34
Number of basis functions                  I               63
Number of independent functions            I               63
Number of point charges in /Mol/           I                0
Number of translation vectors              I                0
Atomic numbers                             I   N=          18
           6           8           7           6           6           8
           7           6           6           8           7           6
           6           6           6           1           1           1
Nuclear charges                            R   N=          18
  4.00000000E+00  6.00000000E+00  5.00000000E+00  4.00000000E+00  4.00000000E+00
  6.00000000E+00  5.00000000E+00  4.00000000E+00  4.00000000E+00  6.00000000E+00
  5.00000000E+00  4.00000000E+00  4.00000000E+00  4.00000000E+00  4.00000000E+00
  1.00000000E+00  1.00000000E+00  1.00000000E+00
Current cartesian coordinates              R   N=          54
  7.39066037E+00  4.87762728E-01  1.55505876E+01  7.67982603E+00  2.79296137E+00
  1.55486265E+01  8.24673470E+00 -9.95628570E-01  1.73647570E+01  9.57529037E+00
  3.78084498E-02  1.95132683E+01  8.07113094E+00  1.54354856E+00  2.13463435E+01
  8.23720298E+00  3.84179241E+00  2.14804378E+01  6.59882377E+00  1.96631899E-01
  2.28145030E+01  4.88472016E+00  1.27926958E+00  2.47270764E+01  5.68047591E+00
  8.87681084E-02  2.71385860E+01  5.58975152E+00 -2.20906837E+00  2.74293797E+01
  6.57805899E+00  1.67620554E+00  2.88409868E+01  7.86695423E+00  7.40639415E-01
  3.10706832E+01  2.12978901E+00  6.23490247E-01  2.42393096E+01  4.68741179E-01
  1.27546305E+00  2.65278149E+01  1.27359232E+00  1.97850652E+00  2.19132779E+01
  6.42292774E+00 -4.35827876E-01  1.40343469E+01  6.87915497E+00  1.50656953E+00
  3.26600592E+01  9.83428723E+00  1.20266670E+00  3.10025382E+01
Number of symbols in /Mol/                 I                0
Int Atom Types                             I   N=          18
           0           0           0           0           0           0
           0           0           0           0           0           0
           0           0           0           0           0           0
Force Field                                I                0
Atom Types                                 C   N=          18
                                                            
                                                            
                                                            
                                    
MM charges                                 R   N=          18
  0.00000000E+00  0.00000000E+00  0.00000000E+00  0.00000000E+00  0.00000000E+00
  0.00000000E+00  0.00000000E+00  0.00000000E+00  0.00000000E+00  0.00000000E+00
  0.00000000E+00  0.00000000E+00  0.00000000E+00  0.00000000E+00  0.00000000E+00
  0.00000000E+00  0.00000000E+00  0.00000000E+00
Integer atomic weights                     I   N=          18
          12          16          14          12          12          16
          14          12          12          16          14          12
          12          12          12           1           1           1
Real atomic weights                        R   N=          18
  1.20000000E+01  1.59949146E+01  1.40030740E+01  1.20000000E+01  1.20000000E+01
  1.59949146E+01  1.40030740E+01  1.20000000E+01  1.20000000E+01  1.59949146E+01
  1.40030740E+01  1.20000000E+01  1.20000000E+01  1.20000000E+01  1.20000000E+01
  1.00782504E+00  1.00782504E+00  1.00782504E+00
Atom fragment info                         I   N=          18
           0           0           0           0           0           0
           0           0           0           0           0           0
           0           0           0           0           0           0
Atom residue num                           I   N=          18
           0           0           0           0           0           0
           0           0           0           0           0           0
           0           0           0           0           0           0
Nuclear spins                              I   N=          18
           0           0           2           0           0           0
           2           0           0           0           2           0
           0           0           0           1           1           1
Nuclear ZEff                               R   N=          18
 -3.90000000E+00 -6.00000000E+00 -4.90000000E+00 -3.90000000E+00 -3.90000000E+00
 -6.00000000E+00 -4.90000000E+00 -3.90000000E+00 -3.90000000E+00 -6.00000000E+00
 -4.90000000E+00 -3.90000000E+00 -3.90000000E+00 -3.90000000E+00 -3.90000000E+00
 -1.00000000E+00 -1.00000000E+00 -1.00000000E+00
Nuclear ZNuc                               R   N=          18
  6.00000000E+00  8.00000000E+00  7.00000000E+00  6.00000000E+00  6.00000000E+00
  8.00000000E+00  7.00000000E+00  6.00000000E+00  6.00000000E+00  8.00000000E+00
  7.00000000E+00  6.00000000E+00  6.00000000E+00  6.00000000E+00  6.00000000E+00
  1.00000000E+00  1.00000000E+00  1.00000000E+00
Nuclear QMom                               R   N=          18
  0.00000000E+00  0.00000000E+00  2.04400000E+00  0.00000000E+00  0.00000000E+00
  0.00000000E+00  2.04400000E+00  0.00000000E+00  0.00000000E+00  0.00000000E+00
  2.04400000E+00  0.00000000E+00  0.00000000E+00  0.00000000E+00  0.00000000E+00
  0.00000000E+00  0.00000000E+00  0.00000000E+00
Nuclear GFac                               R   N=          18
  0.00000000E+00  0.00000000E+00  4.03761000E-01  0.00000000E+00  0.00000000E+00
  0.00000000E+00  4.03761000E-01  0.00000000E+00  0.00000000E+00  0.00000000E+00
  4.03761000E-01  0.00000000E+00  0.00000000E+00  0.00000000E+00  0.00000000E+00
  2.79284600E+00  2.79284600E+00  2.79284600E+00
MicOpt                                     I   N=          18
          -1          -1          -1          -1          -1          -1
          -1          -1          -1          -1          -1          -1
          -1          -1          -1          -1          -1          -1
Number of residues                         I                0
Number of secondary structures             I                0
Number of contracted shells                I               18
Number of primitive shells                 I              108
Pure/Cartesian d shells                    I                0
Pure/Cartesian f shells                    I                0
Highest angular momentum                   I                1
Largest degree of contraction              I                6
Shell types                                I   N=          18
          -1          -1          -1          -1          -1          -1
          -1          -1          -1          -1          -1          -1
          -1          -1          -1           0           0           0
Number of primitives per shell             I   N=          18
           6           6           6           6           6           6
           6           6           6           6           6           6
           6           6           6           6           6           6
Shell to atom map                          I   N=          18
           1           2           3           4           5           6
           7           8           9          10          11          12
          13          14          15          16          17          18
Primitive exponents                        R   N=         108
  1.14476344E+01  3.29633588E+00  1.29653143E+00  5.92558930E-01  2.94896438E-01
  1.51447622E-01  8.02643074E+01  2.31120341E+01  9.09054165E+00  4.15468650E+00
  2.06764625E+00  1.06186467E+00  1.54719623E+01  4.45513742E+00  1.75231709E+00
  8.00868468E-01  3.98565014E-01  2.04687870E-01  1.14476344E+01  3.29633588E+00
  1.29653143E+00  5.92558930E-01  2.94896438E-01  1.51447622E-01  1.14476344E+01
  3.29633588E+00  1.29653143E+00  5.92558930E-01  2.94896438E-01  1.51447622E-01
  8.02643074E+01  2.31120341E+01  9.09054165E+00  4.15468650E+00  2.06764625E+00
  1.06186467E+00  1.54719623E+01  4.45513742E+00  1.75231709E+00  8.00868468E-01
  3.98565014E-01  2.04687870E-01  1.14476344E+01  3.29633588E+00  1.29653143E+00
  5.92558930E-01  2.94896438E-01  1.51447622E-01  1.14476344E+01  3.29633588E+00
  1.29653143E+00  5.92558930E-01  2.94896438E-01  1.51447622E-01  8.02643074E+01
  2.31120341E+01  9.09054165E+00  4.15468650E+00  2.06764625E+00  1.06186467E+00
  1.54719623E+01  4.45513742E+00  1.75231709E+00  8.00868468E-01  3.98565014E-01
  2.04687870E-01  1.14476344E+01  3.29633588E+00  1.29653143E+00  5.92558930E-01
  2.94896438E-01  1.51447622E-01  1.14476344E+01  3.29633588E+00  1.29653143E+00
  5.92558930E-01  2.94896438E-01  1.51447622E-01  1.14476344E+01  3.29633588E+00
  1.29653143E+00  5.92558930E-01  2.94896438E-01  1.51447622E-01  1.14476344E+01
  3.29633588E+00  1.29653143E+00  5.92558930E-01  2.94896438E-01  1.51447622E-01
  4.39461478E+00  1.26542531E+00  4.97723458E-01  2.27476537E-01  1.13207340E-01
  5.81389949E-02  4.39461478E+00  1.26542531E+00  4.97723458E-01  2.27476537E-01
  1.13207340E-01  5.81389949E-02  4.39461478E+00  1.26542531E+00  4.97723458E-01
  2.27476537E-01  1.13207340E-01  5.81389949E-02
Contraction coefficients                   R   N=         108
 -9.73739553E-03 -7.26587678E-02 -1.71615520E-01  1.28977624E-01  7.28861451E-01
  3.01331742E-01 -9.73739553E-03 -7.26587678E-02 -1.71615520E-01  1.28977624E-01
  7.28861451E-01  3.01331742E-01 -9.73739553E-03 -7.26587678E-02 -1.71615520E-01
  1.28977624E-01  7.28861451E-01  3.01331742E-01 -9.73739553E-03 -7.26587678E-02
 -1.71615520E-01  1.28977624E-01  7.28861451E-01  3.01331742E-01 -9.73739553E-03
 -7.26587678E-02 -1.71615520E-01  1.28977624E-01  7.28861451E-01  3.01331742E-01
 -9.73739553E-03 -7.26587678E-02 -1.71615520E-01  1.28977624E-01  7.28861451E-01
  3.01331742E-01 -9.73739553E-03 -7.26587678E-02 -1.71615520E-01  1.28977624E-01
  7.28861451E-01  3.01331742E-01 -9.73739553E-03 -7.26587678E-02 -1.71615520E-01
  1.28977624E-01  7.28861451E-01  3.01331742E-01 -9.73739553E-03 -7.26587678E-02
 -1.71615520E-01  1.28977624E-01  7.28861451E-01  3.01331742E-01 -9.73739553E-03
 -7.26587678E-02 -1.71615520E-01  1.28977624E-01  7.28861451E-01  3.01331742E-01
 -9.73739553E-03 -7.26587678E-02 -1.71615520E-01  1.28977624E-01  7.28861451E-01
  3.01331742E-01 -9.73739553E-03 -7.26587678E-02 -1.71615520E-01  1.28977624E-01
  7.28861451E-01  3.01331742E-01 -9.73739553E-03 -7.26587678E-02 -1.71615520E-01
  1.28977624E-01  7.28861451E-01  3.01331742E-01 -9.73739553E-03 -7.26587678E-02
 -1.71615520E-01  1.28977624E-01  7.28861451E-01  3.01331742E-01 -9.73739553E-03
 -7.26587678E-02 -1.71615520E-01  1.28977624E-01  7.28861451E-01  3.01331742E-01
 -9.73739553E-03 -7.26587678E-02 -1.71615520E-01  1.28977624E-01  7.28861451E-01
  3.01331742E-01 -9.73739553E-03 -7.26587678E-02 -1.71615520E-01  1.28977624E-01
  7.28861451E-01  3.01331742E-01 -9.73739553E-03 -7.26587678E-02 -1.71615520E-01
  1.28977624E-01  7.28861451E-01  3.01331742E-01
P(S=P) Contraction coefficients            R   N=         108
 -8.10494336E-03 -1.71547892E-02  7.36978576E-02  3.96514999E-01  4.97808488E-01
  1.17482582E-01 -8.10494336E-03 -1.71547892E-02  7.36978576E-02  3.96514999E-01
  4.97808488E-01  1.17482582E-01 -8.10494336E-03 -1.71547892E-02  7.36978576E-02
  3.96514999E-01  4.97808488E-01  1.17482582E-01 -8.10494336E-03 -1.71547892E-02
  7.36978576E-02  3.96514999E-01  4.97808488E-01  1.17482582E-01 -8.10494336E-03
 -1.71547892E-02  7.36978576E-02  3.96514999E-01  4.97808488E-01  1.17482582E-01
 -8.10494336E-03 -1.71547892E-02  7.36978576E-02  3.96514999E-01  4.97808488E-01
  1.17482582E-01 -8.10494336E-03 -1.71547892E-02  7.36978576E-02  3.96514999E-01
  4.97808488E-01  1.17482582E-01 -8.10494336E-03 -1.71547892E-02  7.36978576E-02
  3.96514999E-01  4.97808488E-01  1.17482582E-01 -8.10494336E-03 -1.71547892E-02
  7.36978576E-02  3.96514999E-01  4.97808488E-01  1.17482582E-01 -8.10494336E-03
 -1.71547892E-02  7.36978576E-02  3.96514999E-01  4.97808488E-01  1.17482582E-01
 -8.10494336E-03 -1.71547892E-02  7.36978576E-02  3.96514999E-01  4.97808488E-01
  1.17482582E-01 -8.10494336E-03 -1.71547892E-02  7.36978576E-02  3.96514999E-01
  4.97808488E-01  1.17482582E-01 -8.10494336E-03 -1.71547892E-02  7.36978576E-02
  3.96514999E-01  4.97808488E-01  1.17482582E-01 -8.10494336E-03 -1.71547892E-02
  7.36978576E-02  3.96514999E-01  4.97808488E-01  1.17482582E-01 -8.10494336E-03
 -1.71547892E-02  7.36978576E-02  3.96514999E-01  4.97808488E-01  1.17482582E-01
  0.00000000E+00  0.00000000E+00  0.00000000E+00  0.00000000E+00  0.00000000E+00
  0.00000000E+00  0.00000000E+00  0.00000000E+00  0.00000000E+00  0.00000000E+00
  0.00000000E+00  0.00000000E+00  0.00000000E+00  0.00000000E+00  0.00000000E+00
  0.00000000E+00  0.00000000E+00  0.00000000E+00
Coordinates of each shell                  R   N=          54
  7.39066037E+00  4.87762728E-01  1.55505876E+01  7.67982603E+00  2.79296137E+00
  1.55486265E+01  8.24673470E+00 -9.95628570E-01  1.73647570E+01  9.57529037E+00
  3.78084498E-02  1.95132683E+01  8.07113094E+00  1.54354856E+00  2.13463435E+01
  8.23720298E+00  3.84179241E+00  2.14804378E+01  6.59882377E+00  1.96631899E-01
  2.28145030E+01  4.88472016E+00  1.27926958E+00  2.47270764E+01  5.68047591E+00
  8.87681084E-02  2.71385860E+01  5.58975152E+00 -2.20906837E+00  2.74293797E+01
  6.57805899E+00  1.67620554E+00  2.88409868E+01  7.86695423E+00  7.40639415E-01
  3.10706832E+01  2.12978901E+00  6.23490247E-01  2.42393096E+01  4.68741179E-01
  1.27546305E+00  2.65278149E+01  1.27359232E+00  1.97850652E+00  2.19132779E+01
  6.42292774E+00 -4.35827876E-01  1.40343469E+01  6.87915497E+00  1.50656953E+00
  3.26600592E+01  9.83428723E+00  1.20266670E+00  3.10025382E+01
Num ILSW                                   I              100
ILSW                                       I   N=         100
           0           0           0           0           2           0
           0           0           0           0           0          -1
           5           0           0           0           0           0
           0           0           0           0           0           0
           1           1           0           0           0           0
           0           0      100000           0          -1           0
           0           0           0           0           0           0
           0           0           0          40           0           0
           0 -2000000000           1           0           0           0
           0           0           4          52           0           0
           0           0           0           0           0           0
           0           0           0          18           0           1
           0           0           0           0           0           0
           0           0           0           0           0           0
           0           0           0           0           0           0
           0           0           0           0           0           0
           0           0           0           0
Num RLSW                                   I               52
RLSW                                       R   N=          52
  1.00000000E+00  1.00000000E+00  1.00000000E+00  1.00000000E+00  1.00000000E+00
  0.00000000E+00  0.00000000E+00  1.00000000E+00  0.00000000E+00  0.00000000E+00
  0.00000000E+00  0.00000000E+00  1.00000000E+00  0.00000000E+00  0.00000000E+00
  0.00000000E+00  0.00000000E+00  1.00000000E+00  0.00000000E+00  0.00000000E+00
  0.00000000E+00  0.00000000E+00  1.00000000E+00  0.00000000E+00  0.00000000E+00
  0.00000000E+00  0.00000000E+00  1.00000000E+00  0.00000000E+00  0.00000000E+00
  0.00000000E+00  0.00000000E+00  1.00000000E+00  0.00000000E+00  0.00000000E+00
  0.00000000E+00  0.00000000E+00  0.00000000E+00  1.00000000E+00  1.00000000E+00
  0.00000000E+00  1.00000000E+00  0.00000000E+00  0.00000000E+00  0.00000000E+00
  0.00000000E+00  0.00000000E+00  0.00000000E+00  0.00000000E+00  0.00000000E+00
  0.00000000E+00  0.00000000E+00
MxBond                                     I                3
NBond                                      I   N=          18
           3           1           2           2           3           1
           2           3           3           1           2           3
           3           1           1           1           1           1
IBond                                      I   N=          54
           2           3          16           1           0           0
           1           4           0           3           5           0
           4           6           7           5           0           0
           5           8           0           7           9          13
           8          10          11           9           0           0
           9          12           0          11          17          18
           8          14          15          13           0           0
          13           0           0           1           0           0
          12           0           0          12           0           0
RBond                                      R   N=          54
  2.00000000E+00  1.50000000E+00  1.00000000E+00  2.00000000E+00  0.00000000E+00
  0.00000000E+00  1.50000000E+00  1.00000000E+00  0.00000000E+00  1.00000000E+00
  1.00000000E+00  0.00000000E+00  1.00000000E+00  2.00000000E+00  1.50000000E+00
  2.00000000E+00  0.00000000E+00  0.00000000E+00  1.50000000E+00  1.00000000E+00
  0.00000000E+00  1.00000000E+00  1.00000000E+00  1.00000000E+00  1.00000000E+00
  2.00000000E+00  1.50000000E+00  2.00000000E+00  0.00000000E+00  0.00000000E+00
  1.50000000E+00  1.00000000E+00  0.00000000E+00  1.00000000E+00  1.00000000E+00
  1.00000000E+00  1.00000000E+00  1.00000000E+00  1.00000000E+00  1.00000000E+00
  0.00000000E+00  0.00000000E+00  1.00000000E+00  0.00000000E+00  0.00000000E+00
  1.00000000E+00  0.00000000E+00  0.00000000E+00  1.00000000E+00  0.00000000E+00
  0.00000000E+00  1.00000000E+00  0.00000000E+00  0.00000000E+00
Virial Ratio                               R      1.020167876768544E+00
SCF Energy                                 R      2.911232562572366E+00
Total Energy                               R      2.911232562572366E+00
RMS Density                                R      4.873439352008277E-09
Job Status                                 I                1
Nuclear derivative order                   I                0
External E-field                           R   N=          35
  0.00000000E+00  0.00000000E+00  0.00000000E+00  0.00000000E+00  0.00000000E+00
  0.00000000E+00  0.00000000E+00  0.00000000E+00  0.00000000E+00  0.00000000E+00
  0.00000000E+00  0.00000000E+00  0.00000000E+00  0.00000000E+00  0.00000000E+00
  0.00000000E+00  0.00000000E+00  0.00000000E+00  0.00000000E+00  0.00000000E+00
  0.00000000E+00  0.00000000E+00  0.00000000E+00  0.00000000E+00  0.00000000E+00
  0.00000000E+00  0.00000000E+00  0.00000000E+00  0.00000000E+00  0.00000000E+00
  0.00000000E+00  0.00000000E+00  0.00000000E+00  0.00000000E+00  0.00000000E+00
IOpCl                                      I                0
IROHF                                      I                0
Alpha Orbital Energies                     R   N=          63
 -1.86797100E+00 -1.83753162E+00 -1.77631413E+00 -1.76980536E+00 -1.74532823E+00
 -1.68536925E+00 -1.65243981E+00 -1.57473592E+00 -1.53890026E+00 -1.46753779E+00
 -1.41236264E+00 -1.37276605E+00 -1.31718942E+00 -1.27976682E+00 -1.25356084E+00
 -1.23183143E+00 -1.22301352E+00 -1.20845106E+00 -1.19125772E+00 -1.17887520E+00
 -1.14585083E+00 -1.13831263E+00 -1.12954469E+00 -1.10793046E+00 -1.08829390E+00
 -1.08182046E+00 -1.05214476E+00 -1.03702716E+00 -1.01593411E+00 -1.00935945E+00
 -9.84864130E-01 -9.76369833E-01 -9.67875061E-01 -9.07765938E-01 -8.11602708E-01
 -7.08568821E-01 -6.81121649E-01 -6.71791677E-01 -6.50367459E-01 -6.36039553E-01
 -6.30670592E-01 -6.26539520E-01 -6.16261214E-01 -6.00131871E-01 -5.89129314E-01
 -5.66065616E-01 -5.55505218E-01 -5.38007172E-01 -5.23632454E-01 -5.20540560E-01
 -5.07038328E-01 -5.01449969E-01 -4.96009910E-01 -4.82932797E-01 -4.79763213E-01
 -4.69997701E-01 -4.69034592E-01 -4.47902683E-01 -4.11775174E-01 -4.04659570E-01
 -4.00509795E-01 -3.81961963E-01 -3.25504207E-01
Alpha MO coefficients                      R   N=        3969
  8.55198386E-04  9.73326709E-05  2.36832960E-04  8.47236005E-04  5.72502927E-04
 -3.83934432E-05 -4.16094264E-04  2.18996126E-04  1.71493837E-03 -5.90822581E-04
  1.32144634E-03  1.43641601E-03  8.70599590E-03 -6.13392561E-03  4.54578707E-03
  6.91748906E-03  5.99400352E-02 -1.84836118E-02  6.08428253E-03  2.50094292E-02
  3.98974897E-02 -6.15173919E-03 -2.72537432E-02  4.12333244E-03  1.18899255E-01
 -1.14863257E-02  2.91852251E-02  3.67139556E-02  1.73154214E-01  4.07604330E-02
 -6.87623595E-02  7.19464986E-02  5.32983567E-01  3.03614765E-02 -1.67805961E-01
  9.02996959E-02  5.64320927E-01  2.06695648E-02  2.88449693E-01 -2.04857719E-02
  3.73916158E-01 -2.86288970E-02 -1.75163390E-01 -5.87486565E-02  1.34647625E-01
 -4.84324997E-02  8.18690234E-03 -8.61481308E-02  4.71814182E-02  4.18062527E-02
 -8.27074050E-04  2.38907422E-02  1.74567941E-02  1.67942870E-02 -4.01418333E-03
 -3.96417994E-03  3.67247274E-03  5.58087648E-03 -2.09459361E-03  5.04069230E-03
  1.00304711E-04  3.89790252E-02  3.87640371E-02  4.82748992E-02  9.70525193E-03
  8.42283303E-03  2.53160604E-02  3.56897511E-02 -4.41279910E-04 -2.32699780E-02
  8.00890564E-03  7.35819219E-02 -3.35316262E-03  3.80986248E-02  1.94715110E-02
  1.37353075E-01 -7.28811839E-02  5.79773265E-02  5.23217991E-02  5.39010788E-01
 -7.53566115E-02  1.47710895E-01  8.76430450E-02  5.00365495E-01 -4.17638330E-02
 -2.82289825E-01  1.89017025E-03  4.40184411E-01  6.91664044E-02  1.80215202E-01
 -6.84120720E-02  1.42395639E-01  7.04262399E-02 -9.98854900E-03 -9.11443482E-02
 -4.57080112E-02 -4.81721011E-03  5.00454572E-02 -6.20776382E-02 -1.08984631E-01
 -2.87026426E-03 -4.15824562E-02 -7.77148286E-03 -5.96792346E-02  7.82593374E-04
  2.94753110E-02 -6.91875506E-03 -3.08993416E-02  1.01498949E-02 -2.73778190E-03
  1.58573965E-02  2.95033323E-02  2.95789775E-02  8.05581036E-03 -1.14829845E-02
 -5.60955464E-04  2.05665042E-03  6.48203873E-04 -2.28092186E-03  1.54967214E-02
  1.15944636E-02 -3.54024306E-03  6.50106487E-03  9.52706385E-03 -9.93569512E-03
 -8.88698663E-03  4.99817614E-01  8.23487545E-02  1.47174813E-01  1.31190337E-01
  5.06884058E-01 -1.87607869E-02 -2.71519773E-01  3.56668829E-02  4.71117374E-01
 -1.35575769E-02  2.03212579E-01 -4.44411706E-02  1.93273452E-01 -8.48035128E-02
 -1.20126875E-02 -1.15417654E-01 -6.85326204E-03  1.73820471E-02 -8.10578453E-02
 -6.79699116E-02 -1.17386669E-01  7.72335730E-03  3.43891641E-02 -1.44133543E-02
 -3.59636150E-02  9.15334733E-03 -2.50014328E-02 -2.20233236E-02 -3.88489682E-02
 -1.09409284E-02  2.95142477E-03  8.35338978E-03 -6.48118282E-03 -1.80066593E-03
 -2.70445490E-02  9.43853280E-03  4.06049429E-02  1.25664832E-04  7.61797610E-03
  8.80145184E-04 -1.69797415E-02  1.25676522E-03  1.89776738E-03  5.46567045E-03
 -4.06324474E-03  1.01666052E-03 -1.24850115E-03  2.43748166E-03 -1.21380727E-02
 -8.23512075E-03 -3.06063684E-03  2.08945233E-04 -2.78968703E-03 -2.14437625E-03
  6.65790347E-06  1.54658754E-03 -4.73497306E-03 -2.55390191E-03  9.94580426E-04
 -2.71683377E-03  1.21111227E-01 -1.24823777E-03 -1.42078171E-03  2.30006189E-02
  3.63275314E-03  7.53138874E-03  5.31448141E-03  2.46199765E-02 -1.07328015E-03
 -1.28052638E-02  1.31355928E-03  1.94444768E-02 -7.09349618E-04  8.53326907E-03
 -3.22136302E-03  4.62610357E-03 -1.80464365E-03 -1.58677749E-03 -6.33989036E-03
 -9.42177611E-03  1.37712127E-03 -4.77134379E-03 -1.49037996E-03 -1.37195959E-02
  8.95947661E-04  5.98095281E-03  1.03770125E-03 -1.33593616E-02  2.94120558E-03
  4.98939215E-03  2.95436660E-03  4.06722604E-02  2.04030657E-02  3.02012269E-02
  4.89243668E-02  1.01501419E-01  1.03295681E-01  3.82579940E-01  1.36089279E-01
 -5.31135757E-01  1.90293691E-02 -8.62988058E-02  5.56129451E-02  6.10164398E-01
  9.51591432E-03 -1.44931509E-01 -7.30037398E-03  2.79914809E-01 -7.01973140E-02
  5.37910337E-02 -1.27369693E-01 -3.76106214E-03 -4.89382857E-04  8.39209993E-03
  4.11993284E-03  2.74932075E-03  2.69931805E-03  2.24440644E-03  9.04342519E-04
 -2.06932844E-03 -6.79043985E-04  1.61417724E-03  9.53154338E-06  5.64748601E-03
  9.40949254E-02  9.16661315E-02  2.99377290E-02  3.36173535E-03  2.48906457E-02
 -1.30815735E-03  5.47511039E-02 -2.75824089E-03 -2.21507451E-02  1.55875816E-03
 -1.59462970E-02 -2.28436157E-03  6.34578906E-03 -2.13372612E-02 -2.66042134E-02
  2.49073588E-02  3.43206021E-02 -1.59653461E-02  2.79654940E-03  1.42678593E-01
  3.59590900E-01 -1.07721152E-01  5.53749315E-01  1.73727952E-02 -1.38820126E-01
 -4.07793451E-02 -5.33363871E-01  1.88211085E-02 -9.88503395E-02 -1.90282595E-02
 -3.22010144E-01 -6.24092785E-02  6.73040182E-02  8.03342103E-02 -5.04709743E-02
  2.94781693E-02 -7.32994655E-02  1.33150967E-01  1.16004107E-01  1.00268922E-02
  1.33132818E-02  3.31135295E-02  7.66914861E-02  1.95633766E-02 -3.14799896E-02
  5.04820292E-02  7.42802339E-02 -1.67547409E-02  1.11586244E-02 -2.56753748E-02
 -1.29724118E-01 -7.82119383E-02 -2.46652023E-02  1.47311027E-03 -3.30515671E-02
 -2.23488918E-02  1.95478949E-03  1.78013028E-02 -5.15684392E-02 -2.52876041E-02
  1.25632108E-02 -2.74970720E-02  7.31360205E-03  2.67236243E-02  2.42995134E-02
  4.63523739E-02 -3.34114055E-02  3.21760102E-01 -1.35890783E-01  5.50027896E-01
 -3.68560764E-02 -1.38728930E-01 -3.17129958E-02 -4.72156931E-01 -2.16946979E-02
 -1.02213813E-01 -6.07540886E-02 -3.05908889E-01  1.17492584E-01  2.11017508E-02
  7.41602380E-02 -1.32729571E-01 -2.37004195E-02  1.30604560E-01  7.80455731E-02
  1.15330979E-01 -8.12482724E-03  1.02458870E-02  2.08603244E-02  9.02815942E-03
 -9.16707437E-02  1.46423462E-02  1.12365187E-01  2.13471404E-01 -1.49146322E-02
 -3.62114036E-02  1.03956441E-02  7.64869008E-02 -3.53902192E-02  6.07222858E-02
 -9.11525022E-02 -7.75994656E-02 -1.28348850E-02  7.41740457E-03 -2.68015266E-02
 -5.12233900E-02 -3.08710003E-02  1.71039184E-02 -6.23322730E-02 -8.17595878E-02
  1.28243065E-02 -1.42381087E-02  2.09957032E-02  1.39785167E-01  4.88524634E-02
  3.02355940E-02  1.46588346E-02  5.82732510E-02  2.87065274E-02 -3.17536106E-03
 -2.53255985E-02  5.73035060E-02  1.85602322E-02 -1.20426758E-02  3.20618784E-02
  9.50162297E-03 -3.10888884E-02 -2.94072541E-02  6.26148751E-02  2.81058064E-02
 -1.68915001E-01  8.18927245E-02 -2.41610349E-01  1.67264713E-02  3.31597865E-02
  1.94915802E-02  2.83888671E-01 -3.11783487E-03  6.59984140E-02 -4.01790477E-02
  1.43108159E-02  1.90603535E-03 -3.05682639E-02 -1.18083276E-01 -1.74327145E-01
  6.89609976E-02  1.81015914E-01 -6.88866312E-02  2.01298766E-01  1.31202326E-02
  1.32442901E-02 -1.96126235E-02 -2.04494331E-01 -1.58427558E-01 -4.88682922E-02
  1.66458236E-01  3.69948340E-01 -1.12085648E-01 -5.62009409E-02  9.78871387E-02
  1.94960077E-01 -8.46405328E-02  1.33796647E-01 -1.55510749E-01 -1.54104517E-01
 -3.21566402E-02  3.40360373E-02 -4.98264802E-02 -8.39544732E-02 -8.71954524E-02
  2.20583859E-02 -1.58568288E-01 -2.03288632E-01  2.38504054E-02 -3.73430140E-02
  4.14095658E-02  3.49105385E-01  7.22804088E-02  8.07989843E-02  4.84280719E-02
  1.77455516E-01  7.53152551E-02 -8.95214744E-03 -7.19005808E-02  1.53158561E-01
  3.76584367E-02 -3.01713756E-02  8.43740472E-02  2.39172289E-02 -8.00152449E-02
 -7.70288276E-02 -1.25107213E-02 -1.77134897E-03  1.08576958E-02 -4.10715261E-03
  1.12824959E-02 -5.45915873E-04  1.97801583E-03 -6.76032902E-04 -1.53311141E-02
  3.38217186E-03 -3.04846591E-03  1.21905267E-02  1.52466289E-02 -6.68683340E-03
  4.04308046E-03  7.79515887E-03  2.17013465E-02 -1.09006004E-02 -1.27655368E-02
 -1.51273180E-02 -1.31144368E-02 -3.55809035E-03 -4.66928133E-03 -5.75015038E-03
 -1.97096172E-03 -2.55929329E-02  4.57120292E-03 -5.46612024E-02  1.01445388E-02
 -2.00196251E-01  2.54123870E-02 -1.41559265E-01 -2.61892844E-01 -3.81155006E-02
 -1.49771056E-01  1.90233334E-02  1.38614397E-01 -1.03961479E-02 -7.48471445E-02
  1.63572676E-02  1.91440732E-02  1.55805562E-01  3.26607350E-02  3.05930946E-01
  4.11114406E-01 -1.74482960E-02  8.26829187E-02 -2.26845581E-02  4.47750670E-01
 -7.75256904E-02  1.35327181E-01 -3.99634884E-02  2.69436540E-01  6.76695224E-02
 -6.90001881E-03 -1.18446260E-01  3.36564305E-01  4.70268058E-02 -5.60131384E-02
  1.41476344E-01 -5.27557114E-03  1.81982308E-01  1.72111199E-01 -2.03538477E-01
 -1.07726365E-02  1.48305672E-01 -3.90339181E-02  1.46361065E-01 -5.92269869E-04
  4.41824239E-02 -4.38533803E-03 -1.42421019E-01  8.28354614E-02 -2.43115447E-02
  2.19372009E-01  3.50692304E-01 -9.35240613E-02  6.29866366E-02  1.11332774E-01
  2.77650680E-01  1.15469876E-01 -1.66952967E-01 -1.57528148E-01 -1.52291363E-01
  3.87565692E-02 -7.95650763E-02 -5.83368124E-02 -1.78788497E-01  1.72664049E-01
 -4.99906875E-02 -2.00105060E-01 -1.42239756E-01 -1.42226027E-01  5.98292617E-02
  1.36710942E-01  1.15049227E-01 -8.73140832E-03  7.53712429E-02  1.11257710E-01