Atom number=17                                                          
SP        RPM6                                                        ZDO                 
Number of atoms                            I               17
Info1-9                                    I   N=           9
          27          26           0           0           0         110
           1           8        2302
Full Title                                 C   N=           2
Atom number=17          
Route                                      C   N=           2
#p pm6 pop=npa nosymm   
Charge                                     I                1
Multiplicity                               I                1
Number of electrons                        I               64
Number of alpha electrons                  I               32
Number of beta electrons                   I               32
Number of basis functions                  I               56
Number of independent functions            I               56
Number of point charges in /Mol/           I                0
Number of translation vectors              I                0
Atomic numbers                             I   N=          17
           6           8           7           6           6           8
           7           6           6           6           8           7
           6           1           1           1           1
Nuclear charges                            R   N=          17
  4.00000000E+00  6.00000000E+00  5.00000000E+00  4.00000000E+00  4.00000000E+00
  6.00000000E+00  5.00000000E+00  4.00000000E+00  4.00000000E+00  4.00000000E+00
  6.00000000E+00  5.00000000E+00  4.00000000E+00  1.00000000E+00  1.00000000E+00
  1.00000000E+00  1.00000000E+00
Current cartesian coordinates              R   N=          51
  1.58753586E+00 -1.61398466E+00  1.28350344E+01  1.94074828E+00 -3.82101517E+00
  1.26990440E+01  3.42058201E+00  3.76784933E-03  1.32715956E+01  6.03015184E+00
 -8.10687764E-01  1.34189467E+01  7.39066037E+00  4.87762728E-01  1.55505876E+01
  7.67982603E+00  2.79296137E+00  1.55486265E+01  8.24673470E+00 -9.95628570E-01
  1.73647570E+01  9.57529037E+00  3.78084498E-02  1.95132683E+01  7.31513531E+00
 -1.94599253E-01  1.08622099E+01  8.07113094E+00  1.54354856E+00  2.13463435E+01
  8.23720298E+00  3.84179241E+00  2.14804378E+01  6.59882377E+00  1.96631899E-01
  2.28145030E+01  4.88472016E+00  1.27926958E+00  2.47270764E+01 -2.93514492E-01
 -8.90582758E-01  1.26711705E+01  9.18544059E+00 -9.28713066E-01  1.06351699E+01
  5.45842463E+00  4.20971020E-01  2.64656674E+01  2.94621818E+00  8.17831723E-01
  2.43838602E+01
Number of symbols in /Mol/                 I                0
Int Atom Types                             I   N=          17
           0           0           0           0           0           0
           0           0           0           0           0           0
           0           0           0           0           0
Force Field                                I                0
Atom Types                                 C   N=          17
                                                            
                                                            
                                                            
                        
MM charges                                 R   N=          17
  0.00000000E+00  0.00000000E+00  0.00000000E+00  0.00000000E+00  0.00000000E+00
  0.00000000E+00  0.00000000E+00  0.00000000E+00  0.00000000E+00  0.00000000E+00
  0.00000000E+00  0.00000000E+00  0.00000000E+00  0.00000000E+00  0.00000000E+00
  0.00000000E+00  0.00000000E+00
Integer atomic weights                     I   N=          17
          12          16          14          12          12          16
          14          12          12          12          16          14
          12           1           1           1           1
Real atomic weights                        R   N=          17
  1.20000000E+01  1.59949146E+01  1.40030740E+01  1.20000000E+01  1.20000000E+01
  1.59949146E+01  1.40030740E+01  1.20000000E+01  1.20000000E+01  1.20000000E+01
  1.59949146E+01  1.40030740E+01  1.20000000E+01  1.00782504E+00  1.00782504E+00
  1.00782504E+00  1.00782504E+00
Atom fragment info                         I   N=          17
           0           0           0           0           0           0
           0           0           0           0           0           0
           0           0           0           0           0
Atom residue num                           I   N=          17
           0           0           0           0           0           0
           0           0           0           0           0           0
           0           0           0           0           0
Nuclear spins                              I   N=          17
           0           0           2           0           0           0
           2           0           0           0           0           2
           0           1           1           1           1
Nuclear ZEff                               R   N=          17
 -3.90000000E+00 -6.00000000E+00 -4.90000000E+00 -3.90000000E+00 -3.90000000E+00
 -6.00000000E+00 -4.90000000E+00 -3.90000000E+00 -3.90000000E+00 -3.90000000E+00
 -6.00000000E+00 -4.90000000E+00 -3.90000000E+00 -1.00000000E+00 -1.00000000E+00
 -1.00000000E+00 -1.00000000E+00
Nuclear ZNuc                               R   N=          17
  6.00000000E+00  8.00000000E+00  7.00000000E+00  6.00000000E+00  6.00000000E+00
  8.00000000E+00  7.00000000E+00  6.00000000E+00  6.00000000E+00  6.00000000E+00
  8.00000000E+00  7.00000000E+00  6.00000000E+00  1.00000000E+00  1.00000000E+00
  1.00000000E+00  1.00000000E+00
Nuclear QMom                               R   N=          17
  0.00000000E+00  0.00000000E+00  2.04400000E+00  0.00000000E+00  0.00000000E+00
  0.00000000E+00  2.04400000E+00  0.00000000E+00  0.00000000E+00  0.00000000E+00
  0.00000000E+00  2.04400000E+00  0.00000000E+00  0.00000000E+00  0.00000000E+00
  0.00000000E+00  0.00000000E+00
Nuclear GFac                               R   N=          17
  0.00000000E+00  0.00000000E+00  4.03761000E-01  0.00000000E+00  0.00000000E+00
  0.00000000E+00  4.03761000E-01  0.00000000E+00  0.00000000E+00  0.00000000E+00
  0.00000000E+00  4.03761000E-01  0.00000000E+00  2.79284600E+00  2.79284600E+00
  2.79284600E+00  2.79284600E+00
MicOpt                                     I   N=          17
          -1          -1          -1          -1          -1          -1
          -1          -1          -1          -1          -1          -1
          -1          -1          -1          -1          -1
Number of residues                         I                0
Number of secondary structures             I                0
Number of contracted shells                I               17
Number of primitive shells                 I              102
Pure/Cartesian d shells                    I                0
Pure/Cartesian f shells                    I                0
Highest angular momentum                   I                1
Largest degree of contraction              I                6
Shell types                                I   N=          17
          -1          -1          -1          -1          -1          -1
          -1          -1          -1          -1          -1          -1
          -1           0           0           0           0
Number of primitives per shell             I   N=          17
           6           6           6           6           6           6
           6           6           6           6           6           6
           6           6           6           6           6
Shell to atom map                          I   N=          17
           1           2           3           4           5           6
           7           8           9          10          11          12
          13          14          15          16          17
Primitive exponents                        R   N=         102
  1.14476344E+01  3.29633588E+00  1.29653143E+00  5.92558930E-01  2.94896438E-01
  1.51447622E-01  8.02643074E+01  2.31120341E+01  9.09054165E+00  4.15468650E+00
  2.06764625E+00  1.06186467E+00  1.54719623E+01  4.45513742E+00  1.75231709E+00
  8.00868468E-01  3.98565014E-01  2.04687870E-01  1.14476344E+01  3.29633588E+00
  1.29653143E+00  5.92558930E-01  2.94896438E-01  1.51447622E-01  1.14476344E+01
  3.29633588E+00  1.29653143E+00  5.92558930E-01  2.94896438E-01  1.51447622E-01
  8.02643074E+01  2.31120341E+01  9.09054165E+00  4.15468650E+00  2.06764625E+00
  1.06186467E+00  1.54719623E+01  4.45513742E+00  1.75231709E+00  8.00868468E-01
  3.98565014E-01  2.04687870E-01  1.14476344E+01  3.29633588E+00  1.29653143E+00
  5.92558930E-01  2.94896438E-01  1.51447622E-01  1.14476344E+01  3.29633588E+00
  1.29653143E+00  5.92558930E-01  2.94896438E-01  1.51447622E-01  1.14476344E+01
  3.29633588E+00  1.29653143E+00  5.92558930E-01  2.94896438E-01  1.51447622E-01
  8.02643074E+01  2.31120341E+01  9.09054165E+00  4.15468650E+00  2.06764625E+00
  1.06186467E+00  1.54719623E+01  4.45513742E+00  1.75231709E+00  8.00868468E-01
  3.98565014E-01  2.04687870E-01  1.14476344E+01  3.29633588E+00  1.29653143E+00
  5.92558930E-01  2.94896438E-01  1.51447622E-01  4.39461478E+00  1.26542531E+00
  4.97723458E-01  2.27476537E-01  1.13207340E-01  5.81389949E-02  4.39461478E+00
  1.26542531E+00  4.97723458E-01  2.27476537E-01  1.13207340E-01  5.81389949E-02
  4.39461478E+00  1.26542531E+00  4.97723458E-01  2.27476537E-01  1.13207340E-01
  5.81389949E-02  4.39461478E+00  1.26542531E+00  4.97723458E-01  2.27476537E-01
  1.13207340E-01  5.81389949E-02
Contraction coefficients                   R   N=         102
 -9.73739553E-03 -7.26587678E-02 -1.71615520E-01  1.28977624E-01  7.28861451E-01
  3.01331742E-01 -9.73739553E-03 -7.26587678E-02 -1.71615520E-01  1.28977624E-01
  7.28861451E-01  3.01331742E-01 -9.73739553E-03 -7.26587678E-02 -1.71615520E-01
  1.28977624E-01  7.28861451E-01  3.01331742E-01 -9.73739553E-03 -7.26587678E-02
 -1.71615520E-01  1.28977624E-01  7.28861451E-01  3.01331742E-01 -9.73739553E-03
 -7.26587678E-02 -1.71615520E-01  1.28977624E-01  7.28861451E-01  3.01331742E-01
 -9.73739553E-03 -7.26587678E-02 -1.71615520E-01  1.28977624E-01  7.28861451E-01
  3.01331742E-01 -9.73739553E-03 -7.26587678E-02 -1.71615520E-01  1.28977624E-01
  7.28861451E-01  3.01331742E-01 -9.73739553E-03 -7.26587678E-02 -1.71615520E-01
  1.28977624E-01  7.28861451E-01  3.01331742E-01 -9.73739553E-03 -7.26587678E-02
 -1.71615520E-01  1.28977624E-01  7.28861451E-01  3.01331742E-01 -9.73739553E-03
 -7.26587678E-02 -1.71615520E-01  1.28977624E-01  7.28861451E-01  3.01331742E-01
 -9.73739553E-03 -7.26587678E-02 -1.71615520E-01  1.28977624E-01  7.28861451E-01
  3.01331742E-01 -9.73739553E-03 -7.26587678E-02 -1.71615520E-01  1.28977624E-01
  7.28861451E-01  3.01331742E-01 -9.73739553E-03 -7.26587678E-02 -1.71615520E-01
  1.28977624E-01  7.28861451E-01  3.01331742E-01 -9.73739553E-03 -7.26587678E-02
 -1.71615520E-01  1.28977624E-01  7.28861451E-01  3.01331742E-01 -9.73739553E-03
 -7.26587678E-02 -1.71615520E-01  1.28977624E-01  7.28861451E-01  3.01331742E-01
 -9.73739553E-03 -7.26587678E-02 -1.71615520E-01  1.28977624E-01  7.28861451E-01
  3.01331742E-01 -9.73739553E-03 -7.26587678E-02 -1.71615520E-01  1.28977624E-01
  7.28861451E-01  3.01331742E-01
P(S=P) Contraction coefficients            R   N=         102
 -8.10494336E-03 -1.71547892E-02  7.36978576E-02  3.96514999E-01  4.97808488E-01
  1.17482582E-01 -8.10494336E-03 -1.71547892E-02  7.36978576E-02  3.96514999E-01
  4.97808488E-01  1.17482582E-01 -8.10494336E-03 -1.71547892E-02  7.36978576E-02
  3.96514999E-01  4.97808488E-01  1.17482582E-01 -8.10494336E-03 -1.71547892E-02
  7.36978576E-02  3.96514999E-01  4.97808488E-01  1.17482582E-01 -8.10494336E-03
 -1.71547892E-02  7.36978576E-02  3.96514999E-01  4.97808488E-01  1.17482582E-01
 -8.10494336E-03 -1.71547892E-02  7.36978576E-02  3.96514999E-01  4.97808488E-01
  1.17482582E-01 -8.10494336E-03 -1.71547892E-02  7.36978576E-02  3.96514999E-01
  4.97808488E-01  1.17482582E-01 -8.10494336E-03 -1.71547892E-02  7.36978576E-02
  3.96514999E-01  4.97808488E-01  1.17482582E-01 -8.10494336E-03 -1.71547892E-02
  7.36978576E-02  3.96514999E-01  4.97808488E-01  1.17482582E-01 -8.10494336E-03
 -1.71547892E-02  7.36978576E-02  3.96514999E-01  4.97808488E-01  1.17482582E-01
 -8.10494336E-03 -1.71547892E-02  7.36978576E-02  3.96514999E-01  4.97808488E-01
  1.17482582E-01 -8.10494336E-03 -1.71547892E-02  7.36978576E-02  3.96514999E-01
  4.97808488E-01  1.17482582E-01 -8.10494336E-03 -1.71547892E-02  7.36978576E-02
  3.96514999E-01  4.97808488E-01  1.17482582E-01  0.00000000E+00  0.00000000E+00
  0.00000000E+00  0.00000000E+00  0.00000000E+00  0.00000000E+00  0.00000000E+00
  0.00000000E+00  0.00000000E+00  0.00000000E+00  0.00000000E+00  0.00000000E+00
  0.00000000E+00  0.00000000E+00  0.00000000E+00  0.00000000E+00  0.00000000E+00
  0.00000000E+00  0.00000000E+00  0.00000000E+00  0.00000000E+00  0.00000000E+00
  0.00000000E+00  0.00000000E+00
Coordinates of each shell                  R   N=          51
  1.58753586E+00 -1.61398466E+00  1.28350344E+01  1.94074828E+00 -3.82101517E+00
  1.26990440E+01  3.42058201E+00  3.76784933E-03  1.32715956E+01  6.03015184E+00
 -8.10687764E-01  1.34189467E+01  7.39066037E+00  4.87762728E-01  1.55505876E+01
  7.67982603E+00  2.79296137E+00  1.55486265E+01  8.24673470E+00 -9.95628570E-01
  1.73647570E+01  9.57529037E+00  3.78084498E-02  1.95132683E+01  7.31513531E+00
 -1.94599253E-01  1.08622099E+01  8.07113094E+00  1.54354856E+00  2.13463435E+01
  8.23720298E+00  3.84179241E+00  2.14804378E+01  6.59882377E+00  1.96631899E-01
  2.28145030E+01  4.88472016E+00  1.27926958E+00  2.47270764E+01 -2.93514492E-01
 -8.90582758E-01  1.26711705E+01  9.18544059E+00 -9.28713066E-01  1.06351699E+01
  5.45842463E+00  4.20971020E-01  2.64656674E+01  2.94621818E+00  8.17831723E-01
  2.43838602E+01
Num ILSW                                   I              100
ILSW                                       I   N=         100
           0           0           0           0           2           0
           0           0           0           0           0          -1
           5           0           0           0           0           0
           0           0           0           0           0           0
           1           1           0           0           0           0
           0           0      100000           0          -1           0
           0           0           0           0           0           0
           0           0           0          40           0           0
           0 -2000000000           1           0           0           0
           0           0           4          52           0           0
           0           0           0           0           0           0
           0           0           0          17           0           1
           0           0           0           0           0           0
           0           0           0           0           0           0
           0           0           0           0           0           0
           0           0           0           0           0           0
           0           0           0           0
Num RLSW                                   I               52
RLSW                                       R   N=          52
  1.00000000E+00  1.00000000E+00  1.00000000E+00  1.00000000E+00  1.00000000E+00
  0.00000000E+00  0.00000000E+00  1.00000000E+00  0.00000000E+00  0.00000000E+00
  0.00000000E+00  0.00000000E+00  1.00000000E+00  0.00000000E+00  0.00000000E+00
  0.00000000E+00  0.00000000E+00  1.00000000E+00  0.00000000E+00  0.00000000E+00
  0.00000000E+00  0.00000000E+00  1.00000000E+00  0.00000000E+00  0.00000000E+00
  0.00000000E+00  0.00000000E+00  1.00000000E+00  0.00000000E+00  0.00000000E+00
  0.00000000E+00  0.00000000E+00  1.00000000E+00  0.00000000E+00  0.00000000E+00
  0.00000000E+00  0.00000000E+00  0.00000000E+00  1.00000000E+00  1.00000000E+00
  0.00000000E+00  1.00000000E+00  0.00000000E+00  0.00000000E+00  0.00000000E+00
  0.00000000E+00  0.00000000E+00  0.00000000E+00  0.00000000E+00  0.00000000E+00
  0.00000000E+00  0.00000000E+00
MxBond                                     I                3
NBond                                      I   N=          17
           3           1           2           3           3           1
           2           2           2           3           1           2
           3           1           1           1           1
IBond                                      I   N=          51
           2           3          14           1           0           0
           1           4           0           3           5           9
           4           6           7           5           0           0
           5           8           0           7          10           0
           4          15           0           8          11          12
          10           0           0          10          13           0
          12          16          17           1           0           0
           9           0           0          13           0           0
          13           0           0
RBond                                      R   N=          51
  2.00000000E+00  1.50000000E+00  1.00000000E+00  2.00000000E+00  0.00000000E+00
  0.00000000E+00  1.50000000E+00  1.00000000E+00  0.00000000E+00  1.00000000E+00
  1.00000000E+00  1.00000000E+00  1.00000000E+00  2.00000000E+00  1.50000000E+00
  2.00000000E+00  0.00000000E+00  0.00000000E+00  1.50000000E+00  1.00000000E+00
  0.00000000E+00  1.00000000E+00  1.00000000E+00  0.00000000E+00  1.00000000E+00
  1.00000000E+00  0.00000000E+00  1.00000000E+00  2.00000000E+00  1.50000000E+00
  2.00000000E+00  0.00000000E+00  0.00000000E+00  1.50000000E+00  1.00000000E+00
  0.00000000E+00  1.00000000E+00  1.00000000E+00  1.00000000E+00  1.00000000E+00
  0.00000000E+00  0.00000000E+00  1.00000000E+00  0.00000000E+00  0.00000000E+00
  1.00000000E+00  0.00000000E+00  0.00000000E+00  1.00000000E+00  0.00000000E+00
  0.00000000E+00
Virial Ratio                               R      1.005892083797582E+00
SCF Energy                                 R      8.053241660742856E-01
Total Energy                               R      8.053241660742856E-01
RMS Density                                R      7.047002615198703E-09
Job Status                                 I                1
Nuclear derivative order                   I                0
External E-field                           R   N=          35
  0.00000000E+00  0.00000000E+00  0.00000000E+00  0.00000000E+00  0.00000000E+00
  0.00000000E+00  0.00000000E+00  0.00000000E+00  0.00000000E+00  0.00000000E+00
  0.00000000E+00  0.00000000E+00  0.00000000E+00  0.00000000E+00  0.00000000E+00
  0.00000000E+00  0.00000000E+00  0.00000000E+00  0.00000000E+00  0.00000000E+00
  0.00000000E+00  0.00000000E+00  0.00000000E+00  0.00000000E+00  0.00000000E+00
  0.00000000E+00  0.00000000E+00  0.00000000E+00  0.00000000E+00  0.00000000E+00
  0.00000000E+00  0.00000000E+00  0.00000000E+00  0.00000000E+00  0.00000000E+00
IOpCl                                      I                0
IROHF                                      I                0
Alpha Orbital Energies                     R   N=          56
 -1.43414208E+00 -1.41627190E+00 -1.33531689E+00 -1.33281264E+00 -1.32135787E+00
 -1.23447492E+00 -1.19416243E+00 -1.13606184E+00 -1.06769737E+00 -9.86313507E-01
 -9.56767241E-01 -8.76760893E-01 -8.41471655E-01 -8.18930443E-01 -8.09584054E-01
 -8.07311908E-01 -7.77349836E-01 -7.58871553E-01 -7.40610832E-01 -7.14087274E-01
 -6.99162740E-01 -6.84688519E-01 -6.65796873E-01 -6.51590887E-01 -6.35037560E-01
 -6.12321697E-01 -6.05761157E-01 -5.76431138E-01 -5.75541692E-01 -5.28527149E-01
 -4.98213588E-01 -4.84902731E-01 -3.30515990E-01 -2.76257142E-01 -2.70353375E-01
 -2.25950126E-01 -1.90738286E-01 -1.80921564E-01 -1.72247314E-01 -1.44709485E-01
 -1.33435617E-01 -1.12506251E-01 -7.65613417E-02 -6.72588167E-02 -6.44789198E-02
 -6.00777741E-02 -4.11997657E-02 -4.06514570E-02 -3.77261751E-02 -2.73352082E-02
 -2.34446157E-02 -1.96101003E-02  4.16524342E-02  5.44779446E-02  7.17314710E-02
  8.73568387E-02
Alpha MO coefficients                      R   N=        3136
 -1.92773886E-03  1.37114332E-03  8.00471340E-04  1.02381911E-03 -1.86761572E-03
  2.37618736E-04 -1.11285302E-03  1.83587205E-04  1.04623480E-02  1.16414175E-02
  9.67376064E-04  5.38485725E-03  4.97333777E-02  2.28639535E-02  2.39200737E-02
  3.55934199E-02  2.67433983E-01  4.93191902E-02  4.58207517E-02  8.25882963E-02
  2.06808427E-01 -5.74110133E-03 -1.35194579E-01  2.19485782E-02  3.13031023E-01
 -6.09536639E-03  1.30542881E-01 -2.30949973E-03  2.32797991E-01 -1.08030506E-01
  4.72283748E-02 -5.49002462E-03  1.07366803E-02  3.58386098E-05  1.10161994E-03
  1.20942208E-02  4.90204359E-01 -5.15400548E-02  9.05891974E-02  4.35765366E-02
  3.86450271E-01 -3.15855361E-02 -2.45891122E-01 -5.98466914E-03  3.84731564E-01
  6.91020767E-02  1.44190640E-01 -7.08747019E-02  1.18919264E-01  5.83071470E-02
 -1.46914427E-02 -6.34995916E-02 -9.60161663E-04  5.30614582E-03  3.81305655E-02
  3.46246247E-02  1.32789341E-04  4.77903523E-03  1.81813390E-03  2.07891332E-03
 -1.73481627E-03  7.97606475E-04 -3.60740812E-04  5.01998988E-04  2.81650892E-02
  2.40987279E-02 -6.02609842E-05  9.15448238E-03  1.00013909E-01  3.96494302E-02
  4.64174572E-02  6.02014985E-02  4.47553670E-01  7.28735582E-02  9.77320436E-02
  9.59481721E-02  3.85552092E-01 -1.40252625E-02 -2.36064882E-01  2.30289870E-02
  4.25666918E-01 -1.01032738E-02  1.67838679E-01 -6.52909291E-02  9.85819098E-02
 -3.62369358E-02 -4.38968920E-02 -1.40151341E-01  2.51354765E-02 -1.16356325E-03
  2.00765228E-03  2.49239326E-02 -2.67884359E-01  4.82871844E-02 -1.16320869E-01
 -9.65739758E-02 -2.98731993E-01  2.47667436E-02  1.61932718E-01 -1.24543163E-02
 -2.52684994E-01 -3.21348016E-02 -1.01902391E-01  2.00353497E-02 -9.60155107E-02
 -4.29221026E-02  1.24648917E-02  4.50381515E-02 -1.00082508E-03  1.14244134E-02
 -3.22611468E-02 -2.86981835E-02  4.71624444E-01  1.38136668E-01 -1.31989839E-01
  9.55296196E-03  4.37898186E-01 -1.28885090E-02  2.75161991E-01  2.22470722E-02
  4.24727167E-01 -3.26979523E-02 -1.68644927E-01 -3.20206492E-02  1.79895311E-01
 -1.10259265E-01  2.49247205E-02 -1.67862948E-02  5.48136315E-02 -4.31052960E-02
  8.35265568E-02 -7.54603138E-02  1.52195507E-01 -1.97200281E-02 -5.38079165E-02
 -1.85356814E-02 -1.61232184E-01 -1.85621342E-02 -3.19085282E-02 -3.22659831E-02
 -1.00434347E-01  3.99262334E-02  2.45260410E-02  2.83021508E-02  5.20965469E-02
 -2.88717891E-02 -4.89100413E-03  3.27815367E-02 -1.23743433E-02  3.84599278E-02
  1.54731716E-01 -1.04386484E-02  2.17401683E-01  3.00833111E-03 -5.53150291E-02
 -7.99687553E-03 -1.63259561E-01 -9.32010575E-03 -2.09191212E-02  1.43455768E-02
 -6.40247901E-02 -1.95611423E-02  1.65279958E-02  2.25780656E-02  1.26706352E-01
  1.22211385E-02 -2.43894800E-02 -2.26671178E-02 -2.32435778E-01 -6.37430498E-02
  7.10571753E-02 -3.95200590E-03 -2.22978988E-01  7.91429337E-03 -1.37468168E-01
 -1.09663619E-02 -1.83434057E-01  3.01883017E-02  8.44063699E-02  1.62022262E-02
 -5.60884106E-02  5.46048881E-02  1.87580497E-02  4.48529675E-03  4.66709850E-02
  2.50499443E-03  1.69315503E-01 -5.06007253E-02  2.78236893E-01 -1.46160607E-02
 -8.67250910E-02 -1.13528750E-02 -2.06613150E-01 -8.88476323E-03 -2.82532231E-02
 -3.57499809E-02 -1.27987767E-01  5.95560836E-02  4.46384200E-02  2.01105223E-02
 -6.75172991E-03  1.07025087E-02  5.60049137E-03 -3.96396800E-03 -2.36933895E-02
  1.10215684E-01  3.42418351E-01 -6.23132159E-02  4.88398715E-01  1.28764560E-02
 -1.24041526E-01 -2.84347610E-02 -4.28820019E-01 -1.39693972E-02 -6.50631344E-02
  2.00757151E-02 -1.84126023E-01 -5.51647846E-02  4.51692683E-02  6.25347811E-02
 -6.30423601E-02  4.53196183E-05 -7.04223443E-02 -6.51704914E-02 -5.59194577E-02
 -1.05247890E-02  2.49592853E-02 -3.40497873E-04 -6.30429102E-02  3.76427528E-03
 -3.55264377E-02 -2.72713423E-03 -1.42466812E-02  2.18408293E-02  2.26674682E-02
  2.87482662E-03  1.11921677E-02  6.60926241E-03  4.09446050E-02 -1.36873016E-02
  5.41373133E-02 -3.39346203E-02  3.28955190E-01 -1.38632724E-01  5.24104495E-01
 -3.69510131E-02 -1.50029176E-01 -3.73872244E-02 -4.48115448E-01 -1.96247097E-02
 -8.59982846E-02 -2.04672808E-02 -2.07921767E-01  6.37729509E-02  1.61337774E-02
  1.05882851E-01  1.88639982E-02 -1.91160220E-03  5.94302633E-03  1.09668922E-02
 -1.79422663E-02 -1.09810288E-01 -1.40331259E-01  1.27357071E-01 -2.32000677E-01
 -2.07814682E-02  6.32711698E-02  3.94497072E-02  3.44718001E-01 -1.73584962E-02
  7.24968512E-02  2.84676003E-02  1.90532280E-01  5.27507932E-02 -4.21279428E-02
 -5.74399547E-02 -1.56928660E-02  5.87670661E-03  7.41607906E-02  6.80955252E-02
 -6.54761104E-02  1.10728991E-01  3.38035048E-01  4.25765160E-02 -4.92394751E-01
  7.16858979E-02 -1.47090707E-01 -2.19382752E-03  5.05878446E-01  9.36395663E-02
 -6.99399075E-02 -9.14091626E-03  3.85678333E-01 -8.81008635E-02  7.68178929E-02
  1.43883141E-03  1.37595255E-01 -8.30612888E-02 -1.40419103E-01 -9.58167152E-02
 -1.68588484E-01 -2.16142749E-02 -4.10500510E-03 -3.08706049E-02  3.49859485E-03
 -5.50850217E-02 -1.61761698E-02 -1.00842438E-01 -1.16464085E-01  2.94895401E-02
 -3.16883261E-03  3.60066103E-03  1.49856651E-01 -4.43513068E-02 -1.29767599E-02
  8.42197704E-02 -4.86986399E-02 -2.37496361E-02  4.33080759E-02  4.01515936E-02
  3.93561568E-02 -7.93008000E-03  6.67085213E-03  1.28936445E-02  3.25367205E-02
 -3.32245339E-02  1.27009973E-02  4.01783885E-02  6.85977818E-02  8.46165653E-03
 -1.34558530E-02 -9.07173485E-03 -2.22956671E-02  4.94559654E-02  2.99203885E-02
  2.82684837E-02 -4.19429848E-02 -4.95506990E-02 -1.45577411E-01 -1.76938112E-02
  1.78356408E-01 -2.64250386E-02  2.89934998E-02 -1.22101530E-03 -2.12045264E-01
  4.02331000E-02  4.17843337E-02  2.23575966E-02  4.61738115E-02  1.02196397E-01
  5.45958066E-03  6.03374529E-02  1.87223669E-01  1.90304029E-02 -1.54950090E-01
  2.12375861E-02 -1.45137930E-01  5.12719972E-03 -3.31966623E-02  9.21406378E-04
  1.24213819E-01 -7.48475420E-02  1.59662222E-02 -2.18393876E-01 -3.42652950E-01
  9.17073998E-02 -4.92005101E-02 -1.08846007E-01  2.27119148E-02  1.36066791E-02
 -3.49460792E-03  1.60301205E-02 -2.87656886E-01 -6.86146013E-02  2.23153459E-01
  1.09596524E-01  2.05718391E-01 -2.68969187E-02  5.74487172E-02  3.90970685E-02
  7.79114614E-02 -2.23475436E-01  3.11161312E-02  2.48702297E-01  4.28314071E-01
  2.03360500E-02 -8.43922939E-02 -2.47077124E-02 -1.85959685E-02  1.71868855E-02
  1.97929792E-01  1.90678054E-01 -1.61626121E-01 -5.07185123E-02 -2.12767098E-01
 -2.82213271E-02  2.23950020E-01 -2.38652420E-02 -6.91914742E-03 -6.21525913E-03
 -2.27301239E-01  2.08141341E-01  7.10472351E-02  3.71998560E-02  3.44329531E-01
  1.56744574E-01  7.58593631E-02  3.06917455E-02  2.49133465E-01 -8.52959799E-02
 -1.56089064E-01 -1.63793861E-01 -1.78117972E-01 -3.03553244E-02 -6.16469083E-02
 -6.08412853E-02 -1.18155316E-01 -1.17661736E-01 -2.97744019E-02 -1.91558337E-01
 -1.42493862E-01  1.95693520E-02  5.16973952E-02  1.25252069E-01  2.40540943E-01
 -1.56441291E-03 -2.08437392E-02  1.04908859E-01  1.33402796E-01 -5.15575805E-02
 -8.88906250E-02  7.19677858E-02 -9.46614862E-02 -1.33131806E-02 -3.73217969E-02
  2.14535728E-02  5.25224277E-02  1.62554466E-01  2.34979548E-02 -1.64363039E-01
 -3.29427071E-01  2.50444649E-02  6.34530667E-02 -2.15199992E-02 -7.85480416E-02
  1.11260180E-01 -1.67018027E-01 -1.65528347E-01 -1.48980632E-01  2.85271873E-03
 -1.24912672E-01 -2.37513860E-02  1.23958628E-01  2.89319937E-03 -3.10362241E-02
 -8.65972373E-03 -5.67592400E-02  2.03159297E-01  3.89096401E-02 -5.60941526E-03
  2.75574741E-01  3.70237745E-02  5.43130063E-02 -1.46844648E-01 -1.17069551E-01
 -6.66868607E-02  7.12129958E-02 -1.70476330E-01  3.08594607E-02 -1.76615393E-02
  4.16329325E-02 -5.97986596E-02 -6.96118915E-02  1.31332586E-01 -2.83928463E-02
  2.60344081E-01  4.03299906E-01 -4.98192738E-02  2.13766457E-02  1.84220380E-02
  3.38885839E-01 -1.17905017E-02 -2.99032220E-02  9.53151408E-02  4.58160834E-02
  1.83745408E-01 -2.26804922E-02 -2.12276595E-01 -2.38460706E-02  6.73716383E-02
 -1.81603547E-02 -8.09880857E-02 -1.54744950E-01 -1.02552917E-01 -6.27817265E-02
  9.95250378E-02  3.16019148E-01 -8.03582894E-02 -5.35656040E-02  8.03383232E-02
 -8.45468292E-02  1.56120432E-01  1.82683752E-01  1.86100954E-01  1.47951036E-03
  6.07350166E-03  3.96425587E-03 -1.99814432E-02 -5.94654489E-03  4.15644194E-03
  1.53596255E-03 -9.33340322E-03 -1.56503340E-02  6.41924646E-05 -5.88365483E-03
 -6.43510478E-02  3.26413493E-02  3.76000415E-02 -3.26431455E-02 -2.50252070E-01
 -2.44108139E-01  9.01585215E-02  7.31921265E-02  2.29331023E-03  1.60305125E-01
  5.37006518E-02  1.23355017E-01 -1.02107533E-02  2.21694218E-01  1.85990769E-01
 -5.71582149E-02  1.99660716E-01 -8.89826302E-02  4.74867182E-03 -2.13588848E-01
 -2.65553950E-01  4.03360892E-01  3.89382485E-02 -4.39054125E-02  3.39871738E-02
 -2.12903272E-01 -1.98313590E-01  6.15981362E-02  1.81769662E-01  1.80664591E-01
 -8.95037131E-02  1.33912424E-01  9.48476741E-02  1.86984374E-01 -2.09200773E-02
  3.94931077E-02  7.49197670E-03 -2.08581947E-01  1.14114289E-01  1.46805106E-02
 -1.21848926E-01 -5.21936518E-04  2.26635670E-01 -1.45466316E-01 -1.52896682E-01
  3.39311969E-01 -1.50204252E-01  1.76692379E-01 -1.00994092E-02 -2.27432017E-01
 -7.83305406E-02  1.21262905E-01 -2.77191292E-03 -1.72344053E-01 -3.63173496E-01
 -2.50522498E-02 -7.49302247E-02 -1.15571778E-01  2.98429591E-01 -5.88634945E-02
 -1.04073503E-01  8.29912268E-02  1.22341564E-01 -3.80317016E-02  1.26537421E-02
 -5.75425334E-02  6.16483713E-02 -5.92516743E-02  2.02601210E-03 -7.94847056E-02
 -5.36133473E-02  4.11007675E-02 -1.60536631E-01 -1.29776924E-02  1.72973985E-02